 Entering Gaussian System, Link 0=/data/apps/g16_2/g16
 Input=wat_esp0.com
 Output=wat_esp0.log
 Initial command:
 /data/apps/g16_2/l1.exe "/data/home/mdabramo/alessandro/wat_test_py/Gau-15005.inp" -scrdir="/data/home/mdabramo/alessandro/wat_test_py/"
 Entering Link 1 = /data/apps/g16_2/l1.exe PID=     15007.
  
 Copyright (c) 1988-2017, Gaussian, Inc.  All Rights Reserved.
  
 This is part of the Gaussian(R) 16 program.  It is based on
 the Gaussian(R) 09 system (copyright 2009, Gaussian, Inc.),
 the Gaussian(R) 03 system (copyright 2003, Gaussian, Inc.),
 the Gaussian(R) 98 system (copyright 1998, Gaussian, Inc.),
 the Gaussian(R) 94 system (copyright 1995, Gaussian, Inc.),
 the Gaussian 92(TM) system (copyright 1992, Gaussian, Inc.),
 the Gaussian 90(TM) system (copyright 1990, Gaussian, Inc.),
 the Gaussian 88(TM) system (copyright 1988, Gaussian, Inc.),
 the Gaussian 86(TM) system (copyright 1986, Carnegie Mellon
 University), and the Gaussian 82(TM) system (copyright 1983,
 Carnegie Mellon University). Gaussian is a federally registered
 trademark of Gaussian, Inc.
  
 This software contains proprietary and confidential information,
 including trade secrets, belonging to Gaussian, Inc.
  
 This software is provided under written license and may be
 used, copied, transmitted, or stored only in accord with that
 written license.
  
 The following legend is applicable only to US Government
 contracts under FAR:
  
                    RESTRICTED RIGHTS LEGEND
  
 Use, reproduction and disclosure by the US Government is
 subject to restrictions as set forth in subparagraphs (a)
 and (c) of the Commercial Computer Software - Restricted
 Rights clause in FAR 52.227-19.
  
 Gaussian, Inc.
 340 Quinnipiac St., Bldg. 40, Wallingford CT 06492
  
  
 ---------------------------------------------------------------
 Warning -- This program may not be used in any manner that
 competes with the business of Gaussian, Inc. or will provide
 assistance to any competitor of Gaussian, Inc.  The licensee
 of this program is prohibited from giving any competitor of
 Gaussian, Inc. access to this program.  By using this program,
 the user acknowledges that Gaussian, Inc. is engaged in the
 business of creating and licensing software in the field of
 computational chemistry and represents and warrants to the
 licensee that it is not a competitor of Gaussian, Inc. and that
 it will not use this program in any manner prohibited above.
 ---------------------------------------------------------------
  

 Cite this work as:
 Gaussian 16, Revision B.01,
 M. J. Frisch, G. W. Trucks, H. B. Schlegel, G. E. Scuseria, 
 M. A. Robb, J. R. Cheeseman, G. Scalmani, V. Barone, 
 G. A. Petersson, H. Nakatsuji, X. Li, M. Caricato, A. V. Marenich, 
 J. Bloino, B. G. Janesko, R. Gomperts, B. Mennucci, H. P. Hratchian, 
 J. V. Ortiz, A. F. Izmaylov, J. L. Sonnenberg, D. Williams-Young, 
 F. Ding, F. Lipparini, F. Egidi, J. Goings, B. Peng, A. Petrone, 
 T. Henderson, D. Ranasinghe, V. G. Zakrzewski, J. Gao, N. Rega, 
 G. Zheng, W. Liang, M. Hada, M. Ehara, K. Toyota, R. Fukuda, 
 J. Hasegawa, M. Ishida, T. Nakajima, Y. Honda, O. Kitao, H. Nakai, 
 T. Vreven, K. Throssell, J. A. Montgomery, Jr., J. E. Peralta, 
 F. Ogliaro, M. J. Bearpark, J. J. Heyd, E. N. Brothers, K. N. Kudin, 
 V. N. Staroverov, T. A. Keith, R. Kobayashi, J. Normand, 
 K. Raghavachari, A. P. Rendell, J. C. Burant, S. S. Iyengar, 
 J. Tomasi, M. Cossi, J. M. Millam, M. Klene, C. Adamo, R. Cammi, 
 J. W. Ochterski, R. L. Martin, K. Morokuma, O. Farkas, 
 J. B. Foresman, and D. J. Fox, Gaussian, Inc., Wallingford CT, 2016.
 
 ******************************************
 Gaussian 16:  ES64L-G16RevB.01 20-Dec-2017
                11-May-2021 
 ******************************************
 %NProcShared=24
 Will use up to   24 processors via shared memory.
 %Chk=wat_esp.chk
 ---------------------------------
 #P B3LYP/6-31G(d) Pop=(MK,dipole)
 ---------------------------------
 1/38=1,172=1/1;
 2/12=2,17=6,18=5,40=1/2;
 3/5=1,6=6,7=1,11=2,25=1,30=1,74=-5/1,2,3;
 4//1;
 5/5=2,38=5/2;
 6/7=2,8=2,9=2,10=2,15=24,20=1,28=1/1,2;
 99/5=1,9=1/99;
 Leave Link    1 at Tue May 11 16:56:17 2021, MaxMem=           0 cpu:               4.0 elap:               0.2
 (Enter /data/apps/g16_2/l101.exe)
 -----------------
 esp test water py
 -----------------
 Symbolic Z-matrix:
 Charge =  0 Multiplicity = 1
 O                     0.        0.        0.11969 
 H                     0.        0.76143  -0.47878 
 H                     0.       -0.76143  -0.47878 
 
 ITRead=  0  0  0
 MicOpt= -1 -1 -1
 NAtoms=      3 NQM=        3 NQMF=       0 NMMI=      0 NMMIF=      0
                NMic=       0 NMicF=      0.
                    Isotopes and Nuclear Properties:
 (Nuclear quadrupole moments (NQMom) in fm**2, nuclear magnetic moments (NMagM)
  in nuclear magnetons)

  Atom         1           2           3
 IAtWgt=          16           1           1
 AtmWgt=  15.9949146   1.0078250   1.0078250
 NucSpn=           0           1           1
 AtZEff=  -0.0000000  -0.0000000  -0.0000000
 NQMom=    0.0000000   0.0000000   0.0000000
 NMagM=    0.0000000   2.7928460   2.7928460
 AtZNuc=   8.0000000   1.0000000   1.0000000
 Leave Link  101 at Tue May 11 16:56:18 2021, MaxMem=   104857600 cpu:               7.3 elap:               0.3
 (Enter /data/apps/g16_2/l202.exe)
                          Input orientation:                          
 ---------------------------------------------------------------------
 Center     Atomic      Atomic             Coordinates (Angstroms)
 Number     Number       Type             X           Y           Z
 ---------------------------------------------------------------------
      1          8           0        0.000000    0.000000    0.119690
      2          1           0        0.000000    0.761430   -0.478780
      3          1           0        0.000000   -0.761430   -0.478780
 ---------------------------------------------------------------------
                    Distance matrix (angstroms):
                    1          2          3
     1  O    0.000000
     2  H    0.968474   0.000000
     3  H    0.968474   1.522860   0.000000
 Stoichiometry    H2O
 Framework group  C2V[C2(O),SGV(H2)]
 Deg. of freedom     2
 Full point group                 C2V     NOp   4
 Largest Abelian subgroup         C2V     NOp   4
 Largest concise Abelian subgroup C2      NOp   2
                         Standard orientation:                         
 ---------------------------------------------------------------------
 Center     Atomic      Atomic             Coordinates (Angstroms)
 Number     Number       Type             X           Y           Z
 ---------------------------------------------------------------------
      1          8           0        0.000000   -0.000000    0.119694
      2          1           0        0.000000    0.761430   -0.478776
      3          1           0       -0.000000   -0.761430   -0.478776
 ---------------------------------------------------------------------
 Rotational constants (GHZ):         788.2476672         432.4561655         279.2508342
 Leave Link  202 at Tue May 11 16:56:19 2021, MaxMem=   104857600 cpu:               0.9 elap:               0.1
 (Enter /data/apps/g16_2/l301.exe)
 Standard basis: 6-31G(d) (6D, 7F)
 Ernie: Thresh=  0.10000D-02 Tol=  0.10000D-05 Strict=F.
 There are    10 symmetry adapted cartesian basis functions of A1  symmetry.
 There are     1 symmetry adapted cartesian basis functions of A2  symmetry.
 There are     3 symmetry adapted cartesian basis functions of B1  symmetry.
 There are     5 symmetry adapted cartesian basis functions of B2  symmetry.
 There are    10 symmetry adapted basis functions of A1  symmetry.
 There are     1 symmetry adapted basis functions of A2  symmetry.
 There are     3 symmetry adapted basis functions of B1  symmetry.
 There are     5 symmetry adapted basis functions of B2  symmetry.
    19 basis functions,    36 primitive gaussians,    19 cartesian basis functions
     5 alpha electrons        5 beta electrons
       nuclear repulsion energy         9.0899384698 Hartrees.
 IExCor=  402 DFT=T Ex+Corr=B3LYP ExCW=0 ScaHFX=  0.200000
 ScaDFX=  0.800000  0.720000  1.000000  0.810000 ScalE2=  1.000000  1.000000
 IRadAn=      5 IRanWt=     -1 IRanGd=            0 ICorTp=0 IEmpDi=  4
 NAtoms=    3 NActive=    3 NUniq=    2 SFac= 2.25D+00 NAtFMM=   60 NAOKFM=F Big=F
 Integral buffers will be    131072 words long.
 Raffenetti 2 integral format.
 Two-electron integral symmetry is turned on.
 Leave Link  301 at Tue May 11 16:56:19 2021, MaxMem=   104857600 cpu:               3.7 elap:               0.2
 (Enter /data/apps/g16_2/l302.exe)
 NPDir=0 NMtPBC=     1 NCelOv=     1 NCel=       1 NClECP=     1 NCelD=      1
         NCelK=      1 NCelE2=     1 NClLst=     1 CellRange=     0.0.
 One-electron integrals computed using PRISM.
 One-electron integral symmetry used in STVInt
 NBasis=    19 RedAO= T EigKep=  2.27D-02  NBF=    10     1     3     5
 NBsUse=    19 1.00D-06 EigRej= -1.00D+00 NBFU=    10     1     3     5
 Precomputing XC quadrature grid using
 IXCGrd= 4 IRadAn=           5 IRanWt=          -1 IRanGd=           0 AccXCQ= 0.00D+00.
 Generated NRdTot=       0 NPtTot=           0 NUsed=           0 NTot=          32
 NSgBfM=    19    19    19    19    19 MxSgAt=     3 MxSgA2=     3.
 Leave Link  302 at Tue May 11 16:56:20 2021, MaxMem=   104857600 cpu:               4.5 elap:               0.2
 (Enter /data/apps/g16_2/l303.exe)
 DipDrv:  MaxL=1.
 Leave Link  303 at Tue May 11 16:56:20 2021, MaxMem=   104857600 cpu:               1.8 elap:               0.2
 (Enter /data/apps/g16_2/l401.exe)
 ExpMin= 1.61D-01 ExpMax= 5.48D+03 ExpMxC= 8.25D+02 IAcc=3 IRadAn=         5 AccDes= 0.00D+00
 Harris functional with IExCor=  402 and IRadAn=       5 diagonalized for initial guess.
 HarFok:  IExCor=  402 AccDes= 0.00D+00 IRadAn=         5 IDoV= 1 UseB2=F ITyADJ=14
 ICtDFT=  3500011 ScaDFX=  1.000000  1.000000  1.000000  1.000000
 FoFCou: FMM=F IPFlag=           0 FMFlag=      100000 FMFlg1=           0
         NFxFlg=           0 DoJE=T BraDBF=F KetDBF=T FulRan=T
         wScrn=  0.000000 ICntrl=       500 IOpCl=  0 I1Cent=   200000004 NGrid=           0
         NMat0=    1 NMatS0=      1 NMatT0=    0 NMatD0=    1 NMtDS0=    0 NMtDT0=    0
 Petite list used in FoFCou.
 Harris En= -76.4471685160279    
 JPrj=0 DoOrth=F DoCkMO=F.
 Initial guess orbital symmetries:
       Occupied  (A1) (A1) (B2) (A1) (B1)
       Virtual   (A1) (B2) (B2) (A1) (B1) (A1) (B2) (A1) (A1) (A2)
                 (B1) (A1) (B2) (A1)
 The electronic state of the initial guess is 1-A1.
 Leave Link  401 at Tue May 11 16:56:21 2021, MaxMem=   104857600 cpu:               4.3 elap:               0.2
 (Enter /data/apps/g16_2/l502.exe)
 Keep R1 ints in memory in symmetry-blocked form, NReq=20730320.
 FoFCou: FMM=F IPFlag=           0 FMFlag=           0 FMFlg1=           0
         NFxFlg=           0 DoJE=F BraDBF=F KetDBF=F FulRan=T
         wScrn=  0.000000 ICntrl=       600 IOpCl=  0 I1Cent=           0 NGrid=           0
         NMat0=    1 NMatS0=    190 NMatT0=    0 NMatD0=    1 NMtDS0=    0 NMtDT0=    0
 Petite list used in FoFCou.
 Closed shell SCF:
 Using DIIS extrapolation, IDIIS=  1040.
 NGot=   104857600 LenX=   104849298 LenY=   104848416
 Requested convergence on RMS density matrix=1.00D-08 within 128 cycles.
 Requested convergence on MAX density matrix=1.00D-06.
 Requested convergence on             energy=1.00D-06.
 No special actions if energy rises.
 Integral accuracy reduced to 1.0D-05 until final iterations.

 Cycle   1  Pass 0  IDiag  1:
 E= -76.3308975678165    
 DIIS: error= 7.67D-02 at cycle   1 NSaved=   1.
 NSaved= 1 IEnMin= 1 EnMin= -76.3308975678165     IErMin= 1 ErrMin= 7.67D-02
 ErrMax= 7.67D-02  0.00D+00 EMaxC= 1.00D-01 BMatC= 1.04D-01 BMatP= 1.04D-01
 IDIUse=3 WtCom= 2.33D-01 WtEn= 7.67D-01
 Coeff-Com:  0.100D+01
 Coeff-En:   0.100D+01
 Coeff:      0.100D+01
 Gap=     0.210 Goal=   None    Shift=    0.000
 GapD=    0.210 DampG=1.000 DampE=0.500 DampFc=0.5000 IDamp=-1.
 Damping current iteration by 5.00D-01
 RMSDP=3.01D-02 MaxDP=2.35D-01              OVMax= 2.04D-01

 Cycle   2  Pass 0  IDiag  1:
 E= -76.3572869954997     Delta-E=       -0.026389427683 Rises=F Damp=T
 DIIS: error= 1.96D-02 at cycle   2 NSaved=   2.
 NSaved= 2 IEnMin= 2 EnMin= -76.3572869954997     IErMin= 2 ErrMin= 1.96D-02
 ErrMax= 1.96D-02  0.00D+00 EMaxC= 1.00D-01 BMatC= 6.65D-03 BMatP= 1.04D-01
 IDIUse=3 WtCom= 8.04D-01 WtEn= 1.96D-01
 Coeff-Com:  0.187D+00 0.813D+00
 Coeff-En:   0.304D+00 0.696D+00
 Coeff:      0.210D+00 0.790D+00
 Gap=     0.340 Goal=   None    Shift=    0.000
 RMSDP=3.70D-03 MaxDP=4.01D-02 DE=-2.64D-02 OVMax= 1.14D-01

 Cycle   3  Pass 0  IDiag  1:
 E= -76.4087979289215     Delta-E=       -0.051510933422 Rises=F Damp=F
 DIIS: error= 3.45D-03 at cycle   3 NSaved=   3.
 NSaved= 3 IEnMin= 3 EnMin= -76.4087979289215     IErMin= 3 ErrMin= 3.45D-03
 ErrMax= 3.45D-03  0.00D+00 EMaxC= 1.00D-01 BMatC= 2.25D-04 BMatP= 6.65D-03
 IDIUse=3 WtCom= 9.66D-01 WtEn= 3.45D-02
 Coeff-Com:  0.401D-01-0.146D-01 0.974D+00
 Coeff-En:   0.000D+00 0.000D+00 0.100D+01
 Coeff:      0.387D-01-0.141D-01 0.975D+00
 Gap=     0.354 Goal=   None    Shift=    0.000
 RMSDP=5.17D-04 MaxDP=4.48D-03 DE=-5.15D-02 OVMax= 3.52D-03

 Cycle   4  Pass 0  IDiag  1:
 E= -76.4089516783183     Delta-E=       -0.000153749397 Rises=F Damp=F
 DIIS: error= 3.57D-04 at cycle   4 NSaved=   4.
 NSaved= 4 IEnMin= 4 EnMin= -76.4089516783183     IErMin= 4 ErrMin= 3.57D-04
 ErrMax= 3.57D-04  0.00D+00 EMaxC= 1.00D-01 BMatC= 2.09D-06 BMatP= 2.25D-04
 IDIUse=3 WtCom= 9.96D-01 WtEn= 3.57D-03
 Coeff-Com:  0.644D-02-0.181D-01 0.216D+00 0.795D+00
 Coeff-En:   0.000D+00 0.000D+00 0.000D+00 0.100D+01
 Coeff:      0.641D-02-0.180D-01 0.216D+00 0.796D+00
 Gap=     0.354 Goal=   None    Shift=    0.000
 RMSDP=3.94D-05 MaxDP=1.87D-04 DE=-1.54D-04 OVMax= 2.94D-04

 Cycle   5  Pass 0  IDiag  1:
 E= -76.4089531771450     Delta-E=       -0.000001498827 Rises=F Damp=F
 DIIS: error= 5.58D-05 at cycle   5 NSaved=   5.
 NSaved= 5 IEnMin= 5 EnMin= -76.4089531771450     IErMin= 5 ErrMin= 5.58D-05
 ErrMax= 5.58D-05  0.00D+00 EMaxC= 1.00D-01 BMatC= 4.45D-08 BMatP= 2.09D-06
 IDIUse=1 WtCom= 1.00D+00 WtEn= 0.00D+00
 Coeff-Com:  0.542D-03-0.353D-03-0.558D-03-0.510D-02 0.101D+01
 Coeff:      0.542D-03-0.353D-03-0.558D-03-0.510D-02 0.101D+01
 Gap=     0.354 Goal=   None    Shift=    0.000
 RMSDP=8.48D-06 MaxDP=7.74D-05 DE=-1.50D-06 OVMax= 4.72D-05

 Initial convergence to 1.0D-05 achieved.  Increase integral accuracy.
 Cycle   6  Pass 1  IDiag  1:
 E= -76.4089538588106     Delta-E=       -0.000000681666 Rises=F Damp=F
 DIIS: error= 6.18D-07 at cycle   1 NSaved=   1.
 NSaved= 1 IEnMin= 1 EnMin= -76.4089538588106     IErMin= 1 ErrMin= 6.18D-07
 ErrMax= 6.18D-07  0.00D+00 EMaxC= 1.00D-01 BMatC= 4.70D-12 BMatP= 4.70D-12
 IDIUse=1 WtCom= 1.00D+00 WtEn= 0.00D+00
 Coeff-Com:  0.100D+01
 Coeff:      0.100D+01
 Gap=     0.354 Goal=   None    Shift=    0.000
 RMSDP=8.48D-06 MaxDP=7.74D-05 DE=-6.82D-07 OVMax= 1.11D-06

 Cycle   7  Pass 1  IDiag  1:
 E= -76.4089538588155     Delta-E=       -0.000000000005 Rises=F Damp=F
 DIIS: error= 3.36D-07 at cycle   2 NSaved=   2.
 NSaved= 2 IEnMin= 2 EnMin= -76.4089538588155     IErMin= 2 ErrMin= 3.36D-07
 ErrMax= 3.36D-07  0.00D+00 EMaxC= 1.00D-01 BMatC= 1.84D-12 BMatP= 4.70D-12
 IDIUse=1 WtCom= 1.00D+00 WtEn= 0.00D+00
 Coeff-Com:  0.351D+00 0.649D+00
 Coeff:      0.351D+00 0.649D+00
 Gap=     0.354 Goal=   None    Shift=    0.000
 RMSDP=7.49D-08 MaxDP=5.26D-07 DE=-4.85D-12 OVMax= 5.44D-07

 Cycle   8  Pass 1  IDiag  1:
 E= -76.4089538588164     Delta-E=       -0.000000000001 Rises=F Damp=F
 DIIS: error= 2.05D-07 at cycle   3 NSaved=   3.
 NSaved= 3 IEnMin= 3 EnMin= -76.4089538588164     IErMin= 3 ErrMin= 2.05D-07
 ErrMax= 2.05D-07  0.00D+00 EMaxC= 1.00D-01 BMatC= 6.19D-13 BMatP= 1.84D-12
 IDIUse=1 WtCom= 1.00D+00 WtEn= 0.00D+00
 Coeff-Com: -0.427D-01 0.356D+00 0.686D+00
 Coeff:     -0.427D-01 0.356D+00 0.686D+00
 Gap=     0.354 Goal=   None    Shift=    0.000
 RMSDP=2.57D-08 MaxDP=1.99D-07 DE=-9.24D-13 OVMax= 1.70D-07

 Cycle   9  Pass 1  IDiag  1:
 E= -76.4089538588168     Delta-E=       -0.000000000000 Rises=F Damp=F
 DIIS: error= 5.29D-09 at cycle   4 NSaved=   4.
 NSaved= 4 IEnMin= 4 EnMin= -76.4089538588168     IErMin= 4 ErrMin= 5.29D-09
 ErrMax= 5.29D-09  0.00D+00 EMaxC= 1.00D-01 BMatC= 6.40D-16 BMatP= 6.19D-13
 IDIUse=1 WtCom= 1.00D+00 WtEn= 0.00D+00
 Coeff-Com: -0.940D-02 0.514D-01 0.119D+00 0.839D+00
 Coeff:     -0.940D-02 0.514D-01 0.119D+00 0.839D+00
 Gap=     0.354 Goal=   None    Shift=    0.000
 RMSDP=7.91D-10 MaxDP=4.43D-09 DE=-3.98D-13 OVMax= 6.06D-09

 SCF Done:  E(RB3LYP) =  -76.4089538588     A.U. after    9 cycles
            NFock=  9  Conv=0.79D-09     -V/T= 2.0078
 KE= 7.582036181603D+01 PE=-1.987605160759D+02 EE= 3.744126193128D+01
 Leave Link  502 at Tue May 11 16:56:22 2021, MaxMem=   104857600 cpu:               5.3 elap:               0.2
 (Enter /data/apps/g16_2/l601.exe)
 Copying SCF densities to generalized density rwf, IOpCl= 0 IROHF=0.

 **********************************************************************

            Population analysis using the SCF Density.

 **********************************************************************

 Orbital symmetries:
       Occupied  (A1) (A1) (B2) (A1) (B1)
       Virtual   (A1) (B2) (B2) (A1) (B1) (A1) (B2) (A1) (A1) (A2)
                 (B1) (A1) (B2) (A1)
 The electronic state is 1-A1.
 Alpha  occ. eigenvalues --  -19.13812  -0.99798  -0.51725  -0.37220  -0.29120
 Alpha virt. eigenvalues --    0.06267   0.14821   0.77262   0.86113   0.89078
 Alpha virt. eigenvalues --    0.89511   1.06586   1.19342   1.72909   1.74631
 Alpha virt. eigenvalues --    1.77979   2.28087   2.57756   3.55206
          Condensed to atoms (all electrons):
               1          2          3
     1  O    8.289092   0.242657   0.242657
     2  H    0.242657   0.393559  -0.023418
     3  H    0.242657  -0.023418   0.393559
 Mulliken charges:
               1
     1  O   -0.774405
     2  H    0.387203
     3  H    0.387203
 Sum of Mulliken charges =  -0.00000
 Mulliken charges with hydrogens summed into heavy atoms:
               1
     1  O   -0.000000
 Electronic spatial extent (au):  <R**2>=             19.1830
 Charge=             -0.0000 electrons
 Dipole moment (field-independent basis, Debye):
    X=             -0.0000    Y=             -0.0000    Z=             -2.0951  Tot=              2.0951
 Quadrupole moment (field-independent basis, Debye-Ang):
   XX=             -7.2034   YY=             -4.2862   ZZ=             -5.9901
   XY=              0.0000   XZ=              0.0000   YZ=             -0.0000
 Traceless Quadrupole moment (field-independent basis, Debye-Ang):
   XX=             -1.3768   YY=              1.5403   ZZ=             -0.1635
   XY=              0.0000   XZ=              0.0000   YZ=             -0.0000
 Octapole moment (field-independent basis, Debye-Ang**2):
  XXX=              0.0000  YYY=              0.0000  ZZZ=             -1.2172  XYY=             -0.0000
  XXY=              0.0000  XXZ=             -0.3237  XZZ=             -0.0000  YZZ=              0.0000
  YYZ=             -1.2124  XYZ=             -0.0000
 Hexadecapole moment (field-independent basis, Debye-Ang**3):
 XXXX=             -5.2137 YYYY=             -6.0583 ZZZZ=             -6.2927 XXXY=             -0.0000
 XXXZ=             -0.0000 YYYX=             -0.0000 YYYZ=              0.0000 ZZZX=             -0.0000
 ZZZY=             -0.0000 XXYY=             -2.1167 XXZZ=             -1.9675 YYZZ=             -1.7413
 XXYZ=              0.0000 YYXZ=              0.0000 ZZXY=              0.0000
 N-N= 9.089938469803D+00 E-N=-1.987605159817D+02  KE= 7.582036181603D+01
 Symmetry A1   KE= 6.765959934551D+01
 Symmetry A2   KE= 4.952865226318D-35
 Symmetry B1   KE= 4.599864731417D+00
 Symmetry B2   KE= 3.560897739100D+00
 No NMR shielding tensors so no spin-rotation constants.
 Leave Link  601 at Tue May 11 16:56:22 2021, MaxMem=   104857600 cpu:               3.2 elap:               0.2
 (Enter /data/apps/g16_2/l602.exe)
 FitSet:  NAtFit=     3 NAtPot=     3 NAtFrz=     0 MDM=     7 TotChg=   0.00000
 Merz-Kollman atomic radii used.

 **********************************************************************

            Electrostatic Properties Using The SCF Density.

 **********************************************************************

       Atomic Center    1 is at   0.000000 -0.000000  0.119694
       Atomic Center    2 is at   0.000000  0.761430 -0.478776
       Atomic Center    3 is at  -0.000000 -0.761430 -0.478776
     289 points will be used for fitting atomic charges
 Fitting point charges to electrostatic potential
 The dipole moment will be constrained to the correct value
 Charges from ESP fit, RMS=   0.00257 RRMS=   0.11572:
 ESP charges:
               1
     1  O   -0.728824
     2  H    0.364412
     3  H    0.364412
 Sum of ESP charges =  -0.00000
 ESP charges with hydrogens summed into heavy atoms:
               1
     1  O   -0.000000
 Charge=  -0.00000 Dipole=    -0.0000     0.0000    -2.0951 Tot=     2.0951
 -----------------------------------------------------------------

              Electrostatic Properties (Atomic Units)

 -----------------------------------------------------------------
    Center     Electric         -------- Electric Field --------
               Potential          X             Y             Z
 -----------------------------------------------------------------
    1 Atom    -22.322121
    2 Atom     -1.001835
    3 Atom     -1.001835
 -----------------------------------------------------------------
 Leave Link  602 at Tue May 11 16:56:22 2021, MaxMem=   104857600 cpu:               1.8 elap:               0.1
 (Enter /data/apps/g16_2/l9999.exe)
 1\1\GINC-NODE3\SP\RB3LYP\6-31G(d)\H2O1\MDABRAMO\11-May-2021\0\\#P B3LY
 P/6-31G(d) Pop=(MK,dipole)\\esp test water py\\0,1\O,0,0.,0.,0.11969\H
 ,0,0.,0.76143,-0.47878\H,0,0.,-0.76143,-0.47878\\Version=ES64L-G16RevB
 .01\State=1-A1\HF=-76.4089539\RMSD=7.907e-10\Dipole=0.,0.,-0.8242597\Q
 uadrupole=-1.0236323,1.1451905,-0.1215582,0.,0.,0.\PG=C02V [C2(O1),SGV
 (H2)]\\@


 THERE IS NO SUBJECT, HOWEVER COMPLEX,
 WHICH, IF STUDIED WITH PATIENCE AND INTELLIGIENCE
 WILL NOT BECOME
 MORE COMPLEX
                        QUOTED BY D. GORDON ROHMAN
 Job cpu time:       0 days  0 hours  0 minutes 39.0 seconds.
 Elapsed time:       0 days  0 hours  0 minutes  1.9 seconds.
 File lengths (MBytes):  RWF=     17 Int=      0 D2E=      0 Chk=      2 Scr=      2
 Normal termination of Gaussian 16 at Tue May 11 16:56:23 2021.
