 Entering Gaussian System, Link 0=/data/apps/g16_2/g16
 Input=wat_esp1.com
 Output=wat_esp1.log
 Initial command:
 /data/apps/g16_2/l1.exe "/data/home/mdabramo/alessandro/wat_test_py/Gau-11851.inp" -scrdir="/data/home/mdabramo/alessandro/wat_test_py/"
 Entering Link 1 = /data/apps/g16_2/l1.exe PID=     11873.
  
 Copyright (c) 1988-2017, Gaussian, Inc.  All Rights Reserved.
  
 This is part of the Gaussian(R) 16 program.  It is based on
 the Gaussian(R) 09 system (copyright 2009, Gaussian, Inc.),
 the Gaussian(R) 03 system (copyright 2003, Gaussian, Inc.),
 the Gaussian(R) 98 system (copyright 1998, Gaussian, Inc.),
 the Gaussian(R) 94 system (copyright 1995, Gaussian, Inc.),
 the Gaussian 92(TM) system (copyright 1992, Gaussian, Inc.),
 the Gaussian 90(TM) system (copyright 1990, Gaussian, Inc.),
 the Gaussian 88(TM) system (copyright 1988, Gaussian, Inc.),
 the Gaussian 86(TM) system (copyright 1986, Carnegie Mellon
 University), and the Gaussian 82(TM) system (copyright 1983,
 Carnegie Mellon University). Gaussian is a federally registered
 trademark of Gaussian, Inc.
  
 This software contains proprietary and confidential information,
 including trade secrets, belonging to Gaussian, Inc.
  
 This software is provided under written license and may be
 used, copied, transmitted, or stored only in accord with that
 written license.
  
 The following legend is applicable only to US Government
 contracts under FAR:
  
                    RESTRICTED RIGHTS LEGEND
  
 Use, reproduction and disclosure by the US Government is
 subject to restrictions as set forth in subparagraphs (a)
 and (c) of the Commercial Computer Software - Restricted
 Rights clause in FAR 52.227-19.
  
 Gaussian, Inc.
 340 Quinnipiac St., Bldg. 40, Wallingford CT 06492
  
  
 ---------------------------------------------------------------
 Warning -- This program may not be used in any manner that
 competes with the business of Gaussian, Inc. or will provide
 assistance to any competitor of Gaussian, Inc.  The licensee
 of this program is prohibited from giving any competitor of
 Gaussian, Inc. access to this program.  By using this program,
 the user acknowledges that Gaussian, Inc. is engaged in the
 business of creating and licensing software in the field of
 computational chemistry and represents and warrants to the
 licensee that it is not a competitor of Gaussian, Inc. and that
 it will not use this program in any manner prohibited above.
 ---------------------------------------------------------------
  

 Cite this work as:
 Gaussian 16, Revision B.01,
 M. J. Frisch, G. W. Trucks, H. B. Schlegel, G. E. Scuseria, 
 M. A. Robb, J. R. Cheeseman, G. Scalmani, V. Barone, 
 G. A. Petersson, H. Nakatsuji, X. Li, M. Caricato, A. V. Marenich, 
 J. Bloino, B. G. Janesko, R. Gomperts, B. Mennucci, H. P. Hratchian, 
 J. V. Ortiz, A. F. Izmaylov, J. L. Sonnenberg, D. Williams-Young, 
 F. Ding, F. Lipparini, F. Egidi, J. Goings, B. Peng, A. Petrone, 
 T. Henderson, D. Ranasinghe, V. G. Zakrzewski, J. Gao, N. Rega, 
 G. Zheng, W. Liang, M. Hada, M. Ehara, K. Toyota, R. Fukuda, 
 J. Hasegawa, M. Ishida, T. Nakajima, Y. Honda, O. Kitao, H. Nakai, 
 T. Vreven, K. Throssell, J. A. Montgomery, Jr., J. E. Peralta, 
 F. Ogliaro, M. J. Bearpark, J. J. Heyd, E. N. Brothers, K. N. Kudin, 
 V. N. Staroverov, T. A. Keith, R. Kobayashi, J. Normand, 
 K. Raghavachari, A. P. Rendell, J. C. Burant, S. S. Iyengar, 
 J. Tomasi, M. Cossi, J. M. Millam, M. Klene, C. Adamo, R. Cammi, 
 J. W. Ochterski, R. L. Martin, K. Morokuma, O. Farkas, 
 J. B. Foresman, and D. J. Fox, Gaussian, Inc., Wallingford CT, 2016.
 
 ******************************************
 Gaussian 16:  ES64L-G16RevB.01 20-Dec-2017
                11-May-2021 
 ******************************************
 %NProcShared=24
 Will use up to   24 processors via shared memory.
 %Chk=wat_esp.chk
 ----------------------------------------------------------------------
 #P B3LYP/6-31G(d) Pop=(MK,dipole) Density=Current TD=(Root=1,NStates=3
 )
 ----------------------------------------------------------------------
 1/30=1,38=1,172=1/1;
 2/12=2,17=6,18=5,40=1/2;
 3/5=1,6=6,7=1,11=9,25=1,30=1,71=1,74=-5/1,2,3,8;
 4//1;
 5/5=2,38=5/2;
 8/6=1,10=2,107=1,108=3/1;
 9/8=1,15=1,41=3,42=1,70=2/14;
 10/5=4,13=10,28=1/2;
 6/7=2,8=2,9=2,10=2,15=24,20=1,22=-1/1,2;
 99/5=1,9=1/99;
 Leave Link    1 at Tue May 11 16:49:20 2021, MaxMem=           0 cpu:               4.8 elap:               0.3
 (Enter /data/apps/g16_2/l101.exe)
 -----------------
 esp test water py
 -----------------
 Symbolic Z-matrix:
 Charge =  0 Multiplicity = 1
 O                     0.        0.        0.11969 
 H                     0.        0.76143  -0.47878 
 H                     0.       -0.76143  -0.47878 
 
 ITRead=  0  0  0
 MicOpt= -1 -1 -1
 NAtoms=      3 NQM=        3 NQMF=       0 NMMI=      0 NMMIF=      0
                NMic=       0 NMicF=      0.
                    Isotopes and Nuclear Properties:
 (Nuclear quadrupole moments (NQMom) in fm**2, nuclear magnetic moments (NMagM)
  in nuclear magnetons)

  Atom         1           2           3
 IAtWgt=          16           1           1
 AtmWgt=  15.9949146   1.0078250   1.0078250
 NucSpn=           0           1           1
 AtZEff=  -0.0000000  -0.0000000  -0.0000000
 NQMom=    0.0000000   0.0000000   0.0000000
 NMagM=    0.0000000   2.7928460   2.7928460
 AtZNuc=   8.0000000   1.0000000   1.0000000
 Leave Link  101 at Tue May 11 16:49:20 2021, MaxMem=   104857600 cpu:               7.3 elap:               0.3
 (Enter /data/apps/g16_2/l202.exe)
                          Input orientation:                          
 ---------------------------------------------------------------------
 Center     Atomic      Atomic             Coordinates (Angstroms)
 Number     Number       Type             X           Y           Z
 ---------------------------------------------------------------------
      1          8           0        0.000000    0.000000    0.119690
      2          1           0        0.000000    0.761430   -0.478780
      3          1           0        0.000000   -0.761430   -0.478780
 ---------------------------------------------------------------------
                    Distance matrix (angstroms):
                    1          2          3
     1  O    0.000000
     2  H    0.968474   0.000000
     3  H    0.968474   1.522860   0.000000
 Stoichiometry    H2O
 Framework group  C2V[C2(O),SGV(H2)]
 Deg. of freedom     2
 Full point group                 C2V     NOp   4
 Largest Abelian subgroup         C2V     NOp   4
 Largest concise Abelian subgroup C2      NOp   2
                         Standard orientation:                         
 ---------------------------------------------------------------------
 Center     Atomic      Atomic             Coordinates (Angstroms)
 Number     Number       Type             X           Y           Z
 ---------------------------------------------------------------------
      1          8           0        0.000000   -0.000000    0.119694
      2          1           0        0.000000    0.761430   -0.478776
      3          1           0       -0.000000   -0.761430   -0.478776
 ---------------------------------------------------------------------
 Rotational constants (GHZ):         788.2476672         432.4561655         279.2508342
 Leave Link  202 at Tue May 11 16:49:21 2021, MaxMem=   104857600 cpu:               3.3 elap:               0.2
 (Enter /data/apps/g16_2/l301.exe)
 Standard basis: 6-31G(d) (6D, 7F)
 Ernie: Thresh=  0.10000D-02 Tol=  0.10000D-05 Strict=F.
 There are    10 symmetry adapted cartesian basis functions of A1  symmetry.
 There are     1 symmetry adapted cartesian basis functions of A2  symmetry.
 There are     3 symmetry adapted cartesian basis functions of B1  symmetry.
 There are     5 symmetry adapted cartesian basis functions of B2  symmetry.
 There are    10 symmetry adapted basis functions of A1  symmetry.
 There are     1 symmetry adapted basis functions of A2  symmetry.
 There are     3 symmetry adapted basis functions of B1  symmetry.
 There are     5 symmetry adapted basis functions of B2  symmetry.
    19 basis functions,    36 primitive gaussians,    19 cartesian basis functions
     5 alpha electrons        5 beta electrons
       nuclear repulsion energy         9.0899384698 Hartrees.
 IExCor=  402 DFT=T Ex+Corr=B3LYP ExCW=0 ScaHFX=  0.200000
 ScaDFX=  0.800000  0.720000  1.000000  0.810000 ScalE2=  1.000000  1.000000
 IRadAn=      5 IRanWt=     -1 IRanGd=            0 ICorTp=0 IEmpDi=  4
 NAtoms=    3 NActive=    3 NUniq=    2 SFac= 2.25D+00 NAtFMM=   60 NAOKFM=F Big=F
 Integral buffers will be    131072 words long.
 Regular integral format.
 Two-electron integral symmetry is turned on.
 Leave Link  301 at Tue May 11 16:49:22 2021, MaxMem=   104857600 cpu:               1.9 elap:               0.1
 (Enter /data/apps/g16_2/l302.exe)
 NPDir=0 NMtPBC=     1 NCelOv=     1 NCel=       1 NClECP=     1 NCelD=      1
         NCelK=      1 NCelE2=     1 NClLst=     1 CellRange=     0.0.
 One-electron integrals computed using PRISM.
 One-electron integral symmetry used in STVInt
 NBasis=    19 RedAO= T EigKep=  2.27D-02  NBF=    10     1     3     5
 NBsUse=    19 1.00D-06 EigRej= -1.00D+00 NBFU=    10     1     3     5
 Precomputing XC quadrature grid using
 IXCGrd= 4 IRadAn=           5 IRanWt=          -1 IRanGd=           0 AccXCQ= 0.00D+00.
 Generated NRdTot=       0 NPtTot=           0 NUsed=           0 NTot=          32
 NSgBfM=    19    19    19    19    19 MxSgAt=     3 MxSgA2=     3.
 Leave Link  302 at Tue May 11 16:49:22 2021, MaxMem=   104857600 cpu:               4.4 elap:               0.2
 (Enter /data/apps/g16_2/l303.exe)
 DipDrv:  MaxL=1.
 Leave Link  303 at Tue May 11 16:49:22 2021, MaxMem=   104857600 cpu:               2.0 elap:               0.1
 (Enter /data/apps/g16_2/l308.exe)
 Leave Link  308 at Tue May 11 16:49:23 2021, MaxMem=   104857600 cpu:               1.6 elap:               0.1
 (Enter /data/apps/g16_2/l401.exe)
 ExpMin= 1.61D-01 ExpMax= 5.48D+03 ExpMxC= 8.25D+02 IAcc=3 IRadAn=         5 AccDes= 0.00D+00
 Harris functional with IExCor=  402 and IRadAn=       5 diagonalized for initial guess.
 HarFok:  IExCor=  402 AccDes= 0.00D+00 IRadAn=         5 IDoV= 1 UseB2=F ITyADJ=14
 ICtDFT=  3500011 ScaDFX=  1.000000  1.000000  1.000000  1.000000
 FoFCou: FMM=F IPFlag=           0 FMFlag=      100000 FMFlg1=           0
         NFxFlg=           0 DoJE=T BraDBF=F KetDBF=T FulRan=T
         wScrn=  0.000000 ICntrl=       500 IOpCl=  0 I1Cent=   200000004 NGrid=           0
         NMat0=    1 NMatS0=      1 NMatT0=    0 NMatD0=    1 NMtDS0=    0 NMtDT0=    0
 Petite list used in FoFCou.
 Harris En= -76.4471685160280    
 JPrj=0 DoOrth=F DoCkMO=F.
 Initial guess orbital symmetries:
       Occupied  (A1) (A1) (B2) (A1) (B1)
       Virtual   (A1) (B2) (B2) (A1) (B1) (A1) (B2) (A1) (A1) (A2)
                 (B1) (A1) (B2) (A1)
 The electronic state of the initial guess is 1-A1.
 Leave Link  401 at Tue May 11 16:49:23 2021, MaxMem=   104857600 cpu:               4.5 elap:               0.2
 (Enter /data/apps/g16_2/l502.exe)
 Keep R1 ints in memory in symmetry-blocked form, NReq=20730320.
 FoFCou: FMM=F IPFlag=           0 FMFlag=           0 FMFlg1=           0
         NFxFlg=           0 DoJE=F BraDBF=F KetDBF=F FulRan=T
         wScrn=  0.000000 ICntrl=       600 IOpCl=  0 I1Cent=           0 NGrid=           0
         NMat0=    1 NMatS0=    190 NMatT0=    0 NMatD0=    1 NMtDS0=    0 NMtDT0=    0
 Petite list used in FoFCou.
 Closed shell SCF:
 Using DIIS extrapolation, IDIIS=  1040.
 NGot=   104857600 LenX=   104849298 LenY=   104848416
 Requested convergence on RMS density matrix=1.00D-08 within 128 cycles.
 Requested convergence on MAX density matrix=1.00D-06.
 Requested convergence on             energy=1.00D-06.
 No special actions if energy rises.
 Integral accuracy reduced to 1.0D-05 until final iterations.

 Cycle   1  Pass 0  IDiag  1:
 E= -76.3308975678165    
 DIIS: error= 7.67D-02 at cycle   1 NSaved=   1.
 NSaved= 1 IEnMin= 1 EnMin= -76.3308975678165     IErMin= 1 ErrMin= 7.67D-02
 ErrMax= 7.67D-02  0.00D+00 EMaxC= 1.00D-01 BMatC= 1.04D-01 BMatP= 1.04D-01
 IDIUse=3 WtCom= 2.33D-01 WtEn= 7.67D-01
 Coeff-Com:  0.100D+01
 Coeff-En:   0.100D+01
 Coeff:      0.100D+01
 Gap=     0.210 Goal=   None    Shift=    0.000
 GapD=    0.210 DampG=1.000 DampE=0.500 DampFc=0.5000 IDamp=-1.
 Damping current iteration by 5.00D-01
 RMSDP=3.01D-02 MaxDP=2.35D-01              OVMax= 2.04D-01

 Cycle   2  Pass 0  IDiag  1:
 E= -76.3572869954997     Delta-E=       -0.026389427683 Rises=F Damp=T
 DIIS: error= 1.96D-02 at cycle   2 NSaved=   2.
 NSaved= 2 IEnMin= 2 EnMin= -76.3572869954997     IErMin= 2 ErrMin= 1.96D-02
 ErrMax= 1.96D-02  0.00D+00 EMaxC= 1.00D-01 BMatC= 6.65D-03 BMatP= 1.04D-01
 IDIUse=3 WtCom= 8.04D-01 WtEn= 1.96D-01
 Coeff-Com:  0.187D+00 0.813D+00
 Coeff-En:   0.304D+00 0.696D+00
 Coeff:      0.210D+00 0.790D+00
 Gap=     0.340 Goal=   None    Shift=    0.000
 RMSDP=3.70D-03 MaxDP=4.01D-02 DE=-2.64D-02 OVMax= 1.14D-01

 Cycle   3  Pass 0  IDiag  1:
 E= -76.4087979289216     Delta-E=       -0.051510933422 Rises=F Damp=F
 DIIS: error= 3.45D-03 at cycle   3 NSaved=   3.
 NSaved= 3 IEnMin= 3 EnMin= -76.4087979289216     IErMin= 3 ErrMin= 3.45D-03
 ErrMax= 3.45D-03  0.00D+00 EMaxC= 1.00D-01 BMatC= 2.25D-04 BMatP= 6.65D-03
 IDIUse=3 WtCom= 9.66D-01 WtEn= 3.45D-02
 Coeff-Com:  0.401D-01-0.146D-01 0.974D+00
 Coeff-En:   0.000D+00 0.000D+00 0.100D+01
 Coeff:      0.387D-01-0.141D-01 0.975D+00
 Gap=     0.354 Goal=   None    Shift=    0.000
 RMSDP=5.17D-04 MaxDP=4.48D-03 DE=-5.15D-02 OVMax= 3.52D-03

 Cycle   4  Pass 0  IDiag  1:
 E= -76.4089516783184     Delta-E=       -0.000153749397 Rises=F Damp=F
 DIIS: error= 3.57D-04 at cycle   4 NSaved=   4.
 NSaved= 4 IEnMin= 4 EnMin= -76.4089516783184     IErMin= 4 ErrMin= 3.57D-04
 ErrMax= 3.57D-04  0.00D+00 EMaxC= 1.00D-01 BMatC= 2.09D-06 BMatP= 2.25D-04
 IDIUse=3 WtCom= 9.96D-01 WtEn= 3.57D-03
 Coeff-Com:  0.644D-02-0.181D-01 0.216D+00 0.795D+00
 Coeff-En:   0.000D+00 0.000D+00 0.000D+00 0.100D+01
 Coeff:      0.641D-02-0.180D-01 0.216D+00 0.796D+00
 Gap=     0.354 Goal=   None    Shift=    0.000
 RMSDP=3.94D-05 MaxDP=1.87D-04 DE=-1.54D-04 OVMax= 2.94D-04

 Cycle   5  Pass 0  IDiag  1:
 E= -76.4089531771451     Delta-E=       -0.000001498827 Rises=F Damp=F
 DIIS: error= 5.58D-05 at cycle   5 NSaved=   5.
 NSaved= 5 IEnMin= 5 EnMin= -76.4089531771451     IErMin= 5 ErrMin= 5.58D-05
 ErrMax= 5.58D-05  0.00D+00 EMaxC= 1.00D-01 BMatC= 4.45D-08 BMatP= 2.09D-06
 IDIUse=1 WtCom= 1.00D+00 WtEn= 0.00D+00
 Coeff-Com:  0.542D-03-0.353D-03-0.558D-03-0.510D-02 0.101D+01
 Coeff:      0.542D-03-0.353D-03-0.558D-03-0.510D-02 0.101D+01
 Gap=     0.354 Goal=   None    Shift=    0.000
 RMSDP=8.48D-06 MaxDP=7.74D-05 DE=-1.50D-06 OVMax= 4.72D-05

 Initial convergence to 1.0D-05 achieved.  Increase integral accuracy.
 Cycle   6  Pass 1  IDiag  1:
 E= -76.4089538588107     Delta-E=       -0.000000681666 Rises=F Damp=F
 DIIS: error= 6.18D-07 at cycle   1 NSaved=   1.
 NSaved= 1 IEnMin= 1 EnMin= -76.4089538588107     IErMin= 1 ErrMin= 6.18D-07
 ErrMax= 6.18D-07  0.00D+00 EMaxC= 1.00D-01 BMatC= 4.70D-12 BMatP= 4.70D-12
 IDIUse=1 WtCom= 1.00D+00 WtEn= 0.00D+00
 Coeff-Com:  0.100D+01
 Coeff:      0.100D+01
 Gap=     0.354 Goal=   None    Shift=    0.000
 RMSDP=8.48D-06 MaxDP=7.74D-05 DE=-6.82D-07 OVMax= 1.11D-06

 Cycle   7  Pass 1  IDiag  1:
 E= -76.4089538588154     Delta-E=       -0.000000000005 Rises=F Damp=F
 DIIS: error= 3.36D-07 at cycle   2 NSaved=   2.
 NSaved= 2 IEnMin= 2 EnMin= -76.4089538588154     IErMin= 2 ErrMin= 3.36D-07
 ErrMax= 3.36D-07  0.00D+00 EMaxC= 1.00D-01 BMatC= 1.84D-12 BMatP= 4.70D-12
 IDIUse=1 WtCom= 1.00D+00 WtEn= 0.00D+00
 Coeff-Com:  0.351D+00 0.649D+00
 Coeff:      0.351D+00 0.649D+00
 Gap=     0.354 Goal=   None    Shift=    0.000
 RMSDP=7.49D-08 MaxDP=5.26D-07 DE=-4.72D-12 OVMax= 5.44D-07

 Cycle   8  Pass 1  IDiag  1:
 E= -76.4089538588164     Delta-E=       -0.000000000001 Rises=F Damp=F
 DIIS: error= 2.05D-07 at cycle   3 NSaved=   3.
 NSaved= 3 IEnMin= 3 EnMin= -76.4089538588164     IErMin= 3 ErrMin= 2.05D-07
 ErrMax= 2.05D-07  0.00D+00 EMaxC= 1.00D-01 BMatC= 6.19D-13 BMatP= 1.84D-12
 IDIUse=1 WtCom= 1.00D+00 WtEn= 0.00D+00
 Coeff-Com: -0.427D-01 0.356D+00 0.686D+00
 Coeff:     -0.427D-01 0.356D+00 0.686D+00
 Gap=     0.354 Goal=   None    Shift=    0.000
 RMSDP=2.57D-08 MaxDP=1.99D-07 DE=-9.24D-13 OVMax= 1.70D-07

 Cycle   9  Pass 1  IDiag  1:
 E= -76.4089538588168     Delta-E=       -0.000000000000 Rises=F Damp=F
 DIIS: error= 5.29D-09 at cycle   4 NSaved=   4.
 NSaved= 4 IEnMin= 4 EnMin= -76.4089538588168     IErMin= 4 ErrMin= 5.29D-09
 ErrMax= 5.29D-09  0.00D+00 EMaxC= 1.00D-01 BMatC= 6.40D-16 BMatP= 6.19D-13
 IDIUse=1 WtCom= 1.00D+00 WtEn= 0.00D+00
 Coeff-Com: -0.940D-02 0.514D-01 0.119D+00 0.839D+00
 Coeff:     -0.940D-02 0.514D-01 0.119D+00 0.839D+00
 Gap=     0.354 Goal=   None    Shift=    0.000
 RMSDP=7.91D-10 MaxDP=4.43D-09 DE=-4.12D-13 OVMax= 6.06D-09

 SCF Done:  E(RB3LYP) =  -76.4089538588     A.U. after    9 cycles
            NFock=  9  Conv=0.79D-09     -V/T= 2.0078
 KE= 7.582036181603D+01 PE=-1.987605160759D+02 EE= 3.744126193128D+01
 Leave Link  502 at Tue May 11 16:49:24 2021, MaxMem=   104857600 cpu:               6.0 elap:               0.3
 (Enter /data/apps/g16_2/l801.exe)
 DoSCS=F DFT=T ScalE2(SS,OS)=  1.000000  1.000000
 ExpMin= 1.61D-01 ExpMax= 5.48D+03 ExpMxC= 8.25D+02 IAcc=3 IRadAn=         5 AccDes= 0.00D+00
 HarFok:  IExCor=  205 AccDes= 0.00D+00 IRadAn=         5 IDoV=-2 UseB2=F ITyADJ=14
 ICtDFT= 12500011 ScaDFX=  1.000000  1.000000  1.000000  1.000000
 Largest valence mixing into a core orbital is  2.71D-05
 Largest core mixing into a valence orbital is  6.02D-06
 Range of M.O.s used for correlation:     2    19
 NBasis=    19 NAE=     5 NBE=     5 NFC=     1 NFV=     0
 NROrb=     18 NOA=     4 NOB=     4 NVA=    14 NVB=    14
 Leave Link  801 at Tue May 11 16:49:24 2021, MaxMem=   104857600 cpu:               2.1 elap:               0.1
 (Enter /data/apps/g16_2/l914.exe)
 RHF ground state
 Keep R1, R2, and R3 ints in memory in symmetry-blocked form, NReq=21770700.
 FoFCou: FMM=F IPFlag=           0 FMFlag=           0 FMFlg1=           0
         NFxFlg=           0 DoJE=F BraDBF=F KetDBF=F FulRan=T
         wScrn=  0.000000 ICntrl=       600 IOpCl=  0 I1Cent=           0 NGrid=           0
         NMat0=    1 NMatS0=    190 NMatT0=    0 NMatD0=    1 NMtDS0=    0 NMtDT0=    0
 Petite list used in FoFCou.
 MDV=   104857600 DFT=T DoStab=F Mixed=T DoRPA=T DoScal=F NonHer=T
 Making orbital integer symmetry assigments:
 Orbital symmetries:
       Occupied  (A1) (A1) (B2) (A1) (B1)
       Virtual   (A1) (B2) (B2) (A1) (B1) (A1) (B2) (A1) (A1) (A2)
                 (B1) (A1) (B2) (A1)
    12 initial guesses have been made.
 Convergence on wavefunction:    0.000001000000000
 Davidson Disk Diagonalization:  ConvIn= 1.00D-06 SkipCon=T Conv= 1.00D-06.
 Max sub-space:   336 roots to seek:    12 dimension of matrix:          112
 Iteration     1 Dimension    12 NMult     0 NNew     12
 CISAX will form    12 AO SS matrices at one time.
 NMat=    12 NSing=    12 JSym2X=-1.
 New state      2 was old state      3
 New state      3 was old state      2
 Excitation Energies [eV] at current iteration:
 Root      1 :     7.971597219617363
 Root      2 :     9.968115231310534
 Root      3 :    10.571897397938995
 Root      4 :    12.803749011531981
 Root      5 :    14.593078491433801
 Root      6 :    18.259670404579932
 Root      7 :    26.577740556645221
 Root      8 :    27.848713834269105
 Root      9 :    29.312606357118586
 Root     10 :    29.618929972976922
 Root     11 :    31.124201609350596
 Root     12 :    36.335188981741901
 Iteration     2 Dimension    18 NMult    12 NNew      6
 CISAX will form     6 AO SS matrices at one time.
 NMat=     6 NSing=     6 JSym2X=-1.
 Root      1 not converged, maximum delta is    0.013966010748322
 Root      2 not converged, maximum delta is    0.017832391074432
 Root      3 not converged, maximum delta is    0.018549454842803
 Excitation Energies [eV] at current iteration:
 Root      1 :     7.918963057365820   Change is   -0.052634162251543
 Root      2 :     9.943063272759137   Change is   -0.025051958551398
 Root      3 :    10.501704510219064   Change is   -0.070192887719931
 Iteration     3 Dimension    24 NMult    18 NNew      6
 CISAX will form     6 AO SS matrices at one time.
 NMat=     6 NSing=     6 JSym2X=-1.
 Root      1 not converged, maximum delta is    0.001134334218447
 Root      2 not converged, maximum delta is    0.000115257923741
 Root      3 not converged, maximum delta is    0.002454857102840
 Excitation Energies [eV] at current iteration:
 Root      1 :     7.918625702442607   Change is   -0.000337354923214
 Root      2 :     9.943029375830982   Change is   -0.000033896928155
 Root      3 :    10.500570538947349   Change is   -0.001133971271716
 Iteration     4 Dimension    30 NMult    24 NNew      6
 CISAX will form     6 AO SS matrices at one time.
 NMat=     6 NSing=     6 JSym2X=-1.
 Root      1 not converged, maximum delta is    0.000050037634943
 Root      2 not converged, maximum delta is    0.000006217969326
 Root      3 not converged, maximum delta is    0.000155092369802
 Excitation Energies [eV] at current iteration:
 Root      1 :     7.918624828980874   Change is   -0.000000873461733
 Root      2 :     9.943029368160371   Change is   -0.000000007670610
 Root      3 :    10.500557004564884   Change is   -0.000013534382463
 Iteration     5 Dimension    34 NMult    30 NNew      4
 CISAX will form     4 AO SS matrices at one time.
 NMat=     4 NSing=     4 JSym2X=-1.
 Root      1 not converged, maximum delta is    0.000002937021996
 Root      2 has converged.
 Root      3 not converged, maximum delta is    0.000024922344049
 Excitation Energies [eV] at current iteration:
 Root      1 :     7.918624824959812   Change is   -0.000000004021062
 Root      2 :     9.943029368160339   Change is   -0.000000000000033
 Root      3 :    10.500556903495362   Change is   -0.000000101069523
 Iteration     6 Dimension    38 NMult    34 NNew      4
 CISAX will form     4 AO SS matrices at one time.
 NMat=     4 NSing=     4 JSym2X=-1.
 Root      1 has converged.
 Root      2 has converged.
 Root      3 not converged, maximum delta is    0.000001381294598
 Excitation Energies [eV] at current iteration:
 Root      1 :     7.918624824956219   Change is   -0.000000000003592
 Root      2 :     9.943029368160314   Change is   -0.000000000000024
 Root      3 :    10.500556902652967   Change is   -0.000000000842395
 Iteration     7 Dimension    40 NMult    38 NNew      2
 CISAX will form     2 AO SS matrices at one time.
 NMat=     2 NSing=     2 JSym2X=-1.
 Root      1 has converged.
 Root      2 has converged.
 Root      3 has converged.
 Excitation Energies [eV] at current iteration:
 Root      1 :     7.918624824956209   Change is   -0.000000000000011
 Root      2 :     9.943029368160321   Change is    0.000000000000008
 Root      3 :    10.500556902651056   Change is   -0.000000000001911
 Convergence achieved on expansion vectors.
 ***********************************************************************
 Excited states from <AA,BB:AA,BB> singles matrix:
 ***********************************************************************
 
 1PDM for each excited state written to RWF  633
 Ground to excited state transition densities written to RWF  633
 Ground to excited state transition electric dipole moments (Au):
       state          X           Y           Z        Dip. S.      Osc.
         1         0.2645     -0.0000      0.0000      0.0700      0.0136
         2         0.0000     -0.0000      0.0000      0.0000      0.0000
         3         0.0000      0.0000      0.6065      0.3678      0.0946
 Ground to excited state transition velocity dipole moments (Au):
       state          X           Y           Z        Dip. S.      Osc.
         1        -0.1711      0.0000     -0.0000      0.0293      0.0670
         2        -0.0000      0.0000     -0.0000      0.0000      0.0000
         3         0.0000     -0.0000     -0.3060      0.0936      0.1617
 Ground to excited state transition magnetic dipole moments (Au):
       state          X           Y           Z
         1         0.0000      0.2263      0.0000
         2        -0.0000      0.0000     -0.3352
         3         0.0000      0.0000     -0.0000
 Ground to excited state transition velocity quadrupole moments (Au):
       state          XX          YY          ZZ          XY          XZ          YZ
         1         0.0000      0.0000      0.0000      0.0000      0.1220     -0.0000
         2         0.0000      0.0000      0.0000      0.2352     -0.0000      0.0000
         3         0.0054      0.1448      0.2741     -0.0000     -0.0000      0.0000
 <0|del|b> * <b|rxdel|0> + <0|del|b> * <b|delr+rdel|0>
 Rotatory Strengths (R) in cgs (10**-40 erg-esu-cm/Gauss)
       state          XX          YY          ZZ    R(velocity)    E-M Angle
         1         0.0000     -0.0000     -0.0000     -0.0000       90.00
         2         0.0000      0.0000      0.0000      0.0000       90.00
         3         0.0000      0.0000      0.0000      0.0000       90.00
 1/2[<0|r|b>*<b|rxdel|0> + (<0|rxdel|b>*<b|r|0>)*]
 Rotatory Strengths (R) in cgs (10**-40 erg-esu-cm/Gauss)
       state          XX          YY          ZZ     R(length)
         1        -0.0000      0.0000     -0.0000     -0.0000
         2         0.0000      0.0000      0.0000      0.0000
         3        -0.0000     -0.0000      0.0000      0.0000
  1/2[<0|del|b>*<b|r|0> + (<0|r|b>*<b|del|0>)*] (Au)
       state          X           Y           Z        Dip. S.   Osc.(frdel)
         1        -0.0452     -0.0000     -0.0000      0.0452      0.0302
         2        -0.0000     -0.0000     -0.0000      0.0000      0.0000
         3         0.0000     -0.0000     -0.1856      0.1856      0.1237

 Excitation energies and oscillator strengths:
 
 Excited State   1:      Singlet-B1     7.9186 eV  156.57 nm  f=0.0136  <S**2>=0.000
       5 ->  6         0.70715
 This state for optimization and/or second-order correction.
 Total Energy, E(TD-HF/TD-DFT) =  -76.1179497510    
 Copying the excited state density for this state as the 1-particle RhoCI density.
 
 Excited State   2:      Singlet-A2     9.9430 eV  124.69 nm  f=0.0000  <S**2>=0.000
       5 ->  7         0.70672
 
 Excited State   3:      Singlet-A1    10.5006 eV  118.07 nm  f=0.0946  <S**2>=0.000
       4 ->  6         0.70166
 SavETr:  write IOETrn=   770 NScale= 10 NData=  16 NLR=1 NState=    3 LETran=      64.
 The selected state is a singlet.
 CISGrd: IGrad=1 NXY=2 DFT=T
 CISAX will form     1 AO SS matrices at one time.
 NMat=     1 NSing=     1 JSym2X=-1.
 Leave Link  914 at Tue May 11 16:49:26 2021, MaxMem=   104857600 cpu:              22.4 elap:               1.0
 (Enter /data/apps/g16_2/l1002.exe)
 Minotr:  Closed shell wavefunction.
          Computing CIS/TDA/TD derivatives.
          Using Z-Vector for PSCF gradient.
          Skipping F1 and S1 gradient terms here.
          Frozen-core window.
          Direct CPHF calculation.
          Differentiating once with respect to electric field.
                with respect to dipole field.
          Electric field/nuclear overlap derivatives assumed to be zero.
          Requested convergence is 1.0D-10 RMS, and 1.0D-09 maximum.
          NewPWx=F KeepS1=T KeepF1=T KeepIn=T MapXYZ=F SortEE=F KeepMc=T.
 Keep R1 ints in memory in symmetry-blocked form, NReq=20732002.
 FoFCou: FMM=F IPFlag=           0 FMFlag=           0 FMFlg1=           0
         NFxFlg=           0 DoJE=F BraDBF=F KetDBF=F FulRan=T
         wScrn=  0.000000 ICntrl=       600 IOpCl=  0 I1Cent=           0 NGrid=           0
         NMat0=    1 NMatS0=    190 NMatT0=    0 NMatD0=    1 NMtDS0=    0 NMtDT0=    0
 Petite list used in FoFCou.
 Two-electron integral symmetry used by symmetrizing perturbed Fock matrices.
          MDV=     104857600 using IRadAn=       5.
          Solving linear equations separately, MaxMat=       0.
          There are     1 degrees of freedom in the 1st order CPHF.  IDoFFX=0 NUNeed=     1.
 LinEq1:  Iter=  0 NonCon=     1 RMS=1.28D-01 Max=6.54D-01 NDo=     1
 AX will form     1 AO Fock derivatives at one time.
 LinEq1:  Iter=  1 NonCon=     1 RMS=2.08D-02 Max=1.11D-01 NDo=     1
 LinEq1:  Iter=  2 NonCon=     1 RMS=3.30D-03 Max=1.41D-02 NDo=     1
 LinEq1:  Iter=  3 NonCon=     1 RMS=4.70D-04 Max=2.39D-03 NDo=     1
 LinEq1:  Iter=  4 NonCon=     1 RMS=2.71D-05 Max=1.07D-04 NDo=     1
 LinEq1:  Iter=  5 NonCon=     1 RMS=1.71D-06 Max=7.62D-06 NDo=     1
 LinEq1:  Iter=  6 NonCon=     1 RMS=5.71D-08 Max=2.28D-07 NDo=     1
 LinEq1:  Iter=  7 NonCon=     1 RMS=1.62D-09 Max=6.40D-09 NDo=     1
 LinEq1:  Iter=  8 NonCon=     0 RMS=6.32D-11 Max=2.08D-10 NDo=     1
 Linear equations converged to 1.000D-10 1.000D-09 after     8 iterations.
 End of Minotr F.D. properties file   721 does not exist.
 End of Minotr F.D. properties file   722 does not exist.
 End of Minotr F.D. properties file   788 does not exist.
 Leave Link 1002 at Tue May 11 16:49:27 2021, MaxMem=   104857600 cpu:              12.3 elap:               0.6
 (Enter /data/apps/g16_2/l601.exe)
 Copying SCF densities to generalized density rwf, IOpCl= 0 IROHF=0.

 **********************************************************************

            Population analysis using the CI Density.

 **********************************************************************

 Orbital symmetries:
       Occupied  (A1) (A1) (B2) (A1) (B1)
       Virtual   (A1) (B2) (B2) (A1) (B1) (A1) (B2) (A1) (A1) (A2)
                 (B1) (A1) (B2) (A1)
 The electronic state is 1-A1.
 Alpha  occ. eigenvalues --  -19.13812  -0.99798  -0.51725  -0.37220  -0.29120
 Alpha virt. eigenvalues --    0.06267   0.14821   0.77262   0.86113   0.89078
 Alpha virt. eigenvalues --    0.89511   1.06586   1.19342   1.72909   1.74631
 Alpha virt. eigenvalues --    1.77979   2.28087   2.57756   3.55206
          Condensed to atoms (all electrons):
               1          2          3
     1  O    9.580223  -0.785167  -0.785167
     2  H   -0.785167   1.270826   0.509398
     3  H   -0.785167   0.509398   1.270826
 Mulliken charges:
               1
     1  O   -0.009888
     2  H    0.004944
     3  H    0.004944
 Sum of Mulliken charges =  -0.00000
 Mulliken charges with hydrogens summed into heavy atoms:
               1
     1  O   -0.000000
 Electronic spatial extent (au):  <R**2>=             24.9306
 Charge=             -0.0000 electrons
 Dipole moment (field-independent basis, Debye):
    X=              0.0000    Y=             -0.0000    Z=              0.5088  Tot=              0.5088
 Quadrupole moment (field-independent basis, Debye-Ang):
   XX=             -7.2500   YY=             -8.8364   ZZ=             -9.1239
   XY=             -0.0000   XZ=             -0.0000   YZ=             -0.0000
 Traceless Quadrupole moment (field-independent basis, Debye-Ang):
   XX=              1.1534   YY=             -0.4329   ZZ=             -0.7205
   XY=             -0.0000   XZ=             -0.0000   YZ=             -0.0000
 Octapole moment (field-independent basis, Debye-Ang**2):
  XXX=              0.0000  YYY=             -0.0000  ZZZ=              4.1145  XYY=              0.0000
  XXY=             -0.0000  XXZ=              1.1898  XZZ=              0.0000  YZZ=             -0.0000
  YYZ=              1.9110  XYZ=              0.0000
 Hexadecapole moment (field-independent basis, Debye-Ang**3):
 XXXX=             -6.5948 YYYY=            -21.0933 ZZZZ=            -15.3699 XXXY=             -0.0000
 XXXZ=             -0.0000 YYYX=             -0.0000 YYYZ=             -0.0000 ZZZX=             -0.0000
 ZZZY=             -0.0000 XXYY=             -4.4193 XXZZ=             -3.5843 YYZZ=             -6.2078
 XXYZ=             -0.0000 YYXZ=             -0.0000 ZZXY=             -0.0000
 N-N= 9.089938469803D+00 E-N=-1.973927312379D+02  KE= 7.609065414549D+01
 Symmetry A1   KE= 6.952450273732D+01
 Symmetry A2   KE= 3.606529894306D-04
 Symmetry B1   KE= 2.567381581268D+00
 Symmetry B2   KE= 3.998409173911D+00
 No NMR shielding tensors so no spin-rotation constants.
 Leave Link  601 at Tue May 11 16:49:27 2021, MaxMem=   104857600 cpu:               3.5 elap:               0.2
 (Enter /data/apps/g16_2/l602.exe)
 FitSet:  NAtFit=     3 NAtPot=     3 NAtFrz=     0 MDM=     7 TotChg=   0.00000
 Merz-Kollman atomic radii used.

 **********************************************************************

            Electrostatic Properties Using The CI Density.

 **********************************************************************

       Atomic Center    1 is at   0.000000 -0.000000  0.119694
       Atomic Center    2 is at   0.000000  0.761430 -0.478776
       Atomic Center    3 is at  -0.000000 -0.761430 -0.478776
     289 points will be used for fitting atomic charges
 Fitting point charges to electrostatic potential
 The dipole moment will be constrained to the correct value
 Charges from ESP fit, RMS=   0.00555 RRMS=   0.74435:
 ESP charges:
               1
     1  O    0.177005
     2  H   -0.088503
     3  H   -0.088503
 Sum of ESP charges =   0.00000
 ESP charges with hydrogens summed into heavy atoms:
               1
     1  O    0.000000
 Charge=   0.00000 Dipole=     0.0000    -0.0000     0.5088 Tot=     0.5088
 -----------------------------------------------------------------

              Electrostatic Properties (Atomic Units)

 -----------------------------------------------------------------
    Center     Electric         -------- Electric Field --------
               Potential          X             Y             Z
 -----------------------------------------------------------------
    1 Atom    -22.171766
    2 Atom     -0.919365
    3 Atom     -0.919365
 -----------------------------------------------------------------
 Leave Link  602 at Tue May 11 16:49:28 2021, MaxMem=   104857600 cpu:               1.7 elap:               0.1
 (Enter /data/apps/g16_2/l9999.exe)
 Electronic transition elements 
                 1             2             3 
      1  -0.761179D+02 -0.760436D+02 -0.760231D+02
      2   0.264507D+00  0.000000D+00  0.000000D+00
      3   0.000000D+00  0.000000D+00  0.000000D+00
      4   0.000000D+00  0.000000D+00  0.606483D+00
      5  -0.171058D+00  0.000000D+00  0.000000D+00
      6   0.000000D+00  0.000000D+00  0.000000D+00
      7   0.000000D+00  0.000000D+00 -0.305962D+00
      8   0.000000D+00  0.000000D+00  0.000000D+00
      9   0.226311D+00  0.000000D+00  0.000000D+00
     10   0.000000D+00 -0.335195D+00  0.000000D+00
     11   0.000000D+00  0.000000D+00  0.542083D-02
     12   0.000000D+00  0.000000D+00  0.144845D+00
     13   0.000000D+00  0.000000D+00  0.274095D+00
     14   0.000000D+00  0.235215D+00  0.000000D+00
     15   0.121991D+00  0.000000D+00  0.000000D+00
     16   0.000000D+00  0.000000D+00  0.000000D+00
 1\1\GINC-NODE3\SP\RB3LYP TD-FC\6-31G(d)\H2O1\MDABRAMO\11-May-2021\0\\#
 P B3LYP/6-31G(d) Pop=(MK,dipole) Density=Current TD=(Root=1,NStates=3)
 \\esp test water py\\0,1\O,0,0.,0.,0.11969\H,0,0.,0.76143,-0.47878\H,0
 ,0.,-0.76143,-0.47878\\Version=ES64L-G16RevB.01\State=1-A1\HF=-76.4089
 539\RMSD=7.907e-10\Dipole=0.,0.,0.2001831\Quadrupole=0.8575334,-0.3218
 826,-0.5356509,0.,0.,0.\PG=C02V [C2(O1),SGV(H2)]\\@


 NO SCIENCE HAS EVER MADE MORE RAPID PROGRESS IN A
 SHORTER TIME THAN CHEMISTRY.
   -- MARTIN HEINRICH KLOPROTH, 1791
 (FIRST PROFESSOR OF CHEMISTRY AT THE UNIVERSITY OF BERLIN)
 Job cpu time:       0 days  0 hours  1 minutes 20.1 seconds.
 Elapsed time:       0 days  0 hours  0 minutes  3.7 seconds.
 File lengths (MBytes):  RWF=     17 Int=      0 D2E=      0 Chk=      2 Scr=      2
 Normal termination of Gaussian 16 at Tue May 11 16:49:29 2021.
