 Entering Gaussian System, Link 0=/data/apps/g16_2/g16
 Input=wat_opt.com
 Output=wat_opt.log
 Initial command:
 /data/apps/g16_2/l1.exe "/data/home/mdabramo/alessandro/wat_test_py/Gau-21673.inp" -scrdir="/data/home/mdabramo/alessandro/wat_test_py/"
 Entering Link 1 = /data/apps/g16_2/l1.exe PID=     21676.
  
 Copyright (c) 1988-2017, Gaussian, Inc.  All Rights Reserved.
  
 This is part of the Gaussian(R) 16 program.  It is based on
 the Gaussian(R) 09 system (copyright 2009, Gaussian, Inc.),
 the Gaussian(R) 03 system (copyright 2003, Gaussian, Inc.),
 the Gaussian(R) 98 system (copyright 1998, Gaussian, Inc.),
 the Gaussian(R) 94 system (copyright 1995, Gaussian, Inc.),
 the Gaussian 92(TM) system (copyright 1992, Gaussian, Inc.),
 the Gaussian 90(TM) system (copyright 1990, Gaussian, Inc.),
 the Gaussian 88(TM) system (copyright 1988, Gaussian, Inc.),
 the Gaussian 86(TM) system (copyright 1986, Carnegie Mellon
 University), and the Gaussian 82(TM) system (copyright 1983,
 Carnegie Mellon University). Gaussian is a federally registered
 trademark of Gaussian, Inc.
  
 This software contains proprietary and confidential information,
 including trade secrets, belonging to Gaussian, Inc.
  
 This software is provided under written license and may be
 used, copied, transmitted, or stored only in accord with that
 written license.
  
 The following legend is applicable only to US Government
 contracts under FAR:
  
                    RESTRICTED RIGHTS LEGEND
  
 Use, reproduction and disclosure by the US Government is
 subject to restrictions as set forth in subparagraphs (a)
 and (c) of the Commercial Computer Software - Restricted
 Rights clause in FAR 52.227-19.
  
 Gaussian, Inc.
 340 Quinnipiac St., Bldg. 40, Wallingford CT 06492
  
  
 ---------------------------------------------------------------
 Warning -- This program may not be used in any manner that
 competes with the business of Gaussian, Inc. or will provide
 assistance to any competitor of Gaussian, Inc.  The licensee
 of this program is prohibited from giving any competitor of
 Gaussian, Inc. access to this program.  By using this program,
 the user acknowledges that Gaussian, Inc. is engaged in the
 business of creating and licensing software in the field of
 computational chemistry and represents and warrants to the
 licensee that it is not a competitor of Gaussian, Inc. and that
 it will not use this program in any manner prohibited above.
 ---------------------------------------------------------------
  

 Cite this work as:
 Gaussian 16, Revision B.01,
 M. J. Frisch, G. W. Trucks, H. B. Schlegel, G. E. Scuseria, 
 M. A. Robb, J. R. Cheeseman, G. Scalmani, V. Barone, 
 G. A. Petersson, H. Nakatsuji, X. Li, M. Caricato, A. V. Marenich, 
 J. Bloino, B. G. Janesko, R. Gomperts, B. Mennucci, H. P. Hratchian, 
 J. V. Ortiz, A. F. Izmaylov, J. L. Sonnenberg, D. Williams-Young, 
 F. Ding, F. Lipparini, F. Egidi, J. Goings, B. Peng, A. Petrone, 
 T. Henderson, D. Ranasinghe, V. G. Zakrzewski, J. Gao, N. Rega, 
 G. Zheng, W. Liang, M. Hada, M. Ehara, K. Toyota, R. Fukuda, 
 J. Hasegawa, M. Ishida, T. Nakajima, Y. Honda, O. Kitao, H. Nakai, 
 T. Vreven, K. Throssell, J. A. Montgomery, Jr., J. E. Peralta, 
 F. Ogliaro, M. J. Bearpark, J. J. Heyd, E. N. Brothers, K. N. Kudin, 
 V. N. Staroverov, T. A. Keith, R. Kobayashi, J. Normand, 
 K. Raghavachari, A. P. Rendell, J. C. Burant, S. S. Iyengar, 
 J. Tomasi, M. Cossi, J. M. Millam, M. Klene, C. Adamo, R. Cammi, 
 J. W. Ochterski, R. L. Martin, K. Morokuma, O. Farkas, 
 J. B. Foresman, and D. J. Fox, Gaussian, Inc., Wallingford CT, 2016.
 
 ******************************************
 Gaussian 16:  ES64L-G16RevB.01 20-Dec-2017
                11-May-2021 
 ******************************************
 %NProcShared=24
 Will use up to   24 processors via shared memory.
 %Chk=wat_opt.chk
 ---------------------
 #P B3LYP/6-31G(d) Opt
 ---------------------
 1/18=20,19=15,26=3,38=1/1,3;
 2/9=110,12=2,17=6,18=5,40=1/2;
 3/5=1,6=6,7=1,11=2,25=1,30=1,71=1,74=-5/1,2,3;
 4//1;
 5/5=2,38=5/2;
 6/7=2,8=2,9=2,10=2,28=1/1;
 7//1,2,3,16;
 1/18=20,19=15,26=3/3(2);
 2/9=110/2;
 99//99;
 2/9=110/2;
 3/5=1,6=6,7=1,11=2,25=1,30=1,71=1,74=-5/1,2,3;
 4/5=5,16=3,69=1/1;
 5/5=2,38=5/2;
 7//1,2,3,16;
 1/18=20,19=15,26=3/3(-5);
 2/9=110/2;
 6/7=2,8=2,9=2,10=2,19=2,28=1/1;
 99/9=1/99;
 Leave Link    1 at Tue May 11 14:42:30 2021, MaxMem=           0 cpu:               6.3 elap:               0.4
 (Enter /data/apps/g16_2/l101.exe)
 -----------------
 Opt water test py
 -----------------
 Symbolic Z-matrix:
 Charge =  0 Multiplicity = 1
 O                     0.18728   2.12115   0. 
 H                     1.15728   2.12115   0. 
 H                    -0.13605   2.72437   0.68737 
 
 ITRead=  0  0  0
 MicOpt= -1 -1 -1
 NAtoms=      3 NQM=        3 NQMF=       0 NMMI=      0 NMMIF=      0
                NMic=       0 NMicF=      0.
                    Isotopes and Nuclear Properties:
 (Nuclear quadrupole moments (NQMom) in fm**2, nuclear magnetic moments (NMagM)
  in nuclear magnetons)

  Atom         1           2           3
 IAtWgt=          16           1           1
 AtmWgt=  15.9949146   1.0078250   1.0078250
 NucSpn=           0           1           1
 AtZEff=  -0.0000000  -0.0000000  -0.0000000
 NQMom=    0.0000000   0.0000000   0.0000000
 NMagM=    0.0000000   2.7928460   2.7928460
 AtZNuc=   8.0000000   1.0000000   1.0000000
 Leave Link  101 at Tue May 11 14:42:32 2021, MaxMem=   104857600 cpu:               9.5 elap:               0.5
 (Enter /data/apps/g16_2/l103.exe)

 GradGradGradGradGradGradGradGradGradGradGradGradGradGradGradGradGradGrad
 Berny optimization.
 Initialization pass.
                           ----------------------------
                           !    Initial Parameters    !
                           ! (Angstroms and Degrees)  !
 --------------------------                            --------------------------
 ! Name  Definition              Value          Derivative Info.                !
 --------------------------------------------------------------------------------
 ! R1    R(1,2)                  0.97           estimate D2E/DX2                !
 ! R2    R(1,3)                  0.97           estimate D2E/DX2                !
 ! A1    A(2,1,3)              109.4711         estimate D2E/DX2                !
 --------------------------------------------------------------------------------
 Trust Radius=3.00D-01 FncErr=1.00D-07 GrdErr=1.00D-06 EigMax=2.50D+02 EigMin=1.00D-04
 Number of steps in this run=     20 maximum allowed number of steps=    100.
 GradGradGradGradGradGradGradGradGradGradGradGradGradGradGradGradGradGrad

 Leave Link  103 at Tue May 11 14:42:34 2021, MaxMem=   104857600 cpu:               1.0 elap:               0.3
 (Enter /data/apps/g16_2/l202.exe)
                          Input orientation:                          
 ---------------------------------------------------------------------
 Center     Atomic      Atomic             Coordinates (Angstroms)
 Number     Number       Type             X           Y           Z
 ---------------------------------------------------------------------
      1          8           0        0.187280    2.121150    0.000000
      2          1           0        1.157280    2.121150    0.000000
      3          1           0       -0.136050    2.724370    0.687370
 ---------------------------------------------------------------------
                    Distance matrix (angstroms):
                    1          2          3
     1  O    0.000000
     2  H    0.970000   0.000000
     3  H    0.969997   1.583999   0.000000
 Stoichiometry    H2O
 Framework group  CS[SG(H2O)]
 Deg. of freedom     3
 Full point group                 CS      NOp   2
 Largest Abelian subgroup         CS      NOp   2
 Largest concise Abelian subgroup C1      NOp   1
                         Standard orientation:                         
 ---------------------------------------------------------------------
 Center     Atomic      Atomic             Coordinates (Angstroms)
 Number     Number       Type             X           Y           Z
 ---------------------------------------------------------------------
      1          8           0       -0.000000    0.112006    0.000000
      2          1           0        0.792000   -0.448027    0.000000
      3          1           0       -0.792000   -0.448021   -0.000000
 ---------------------------------------------------------------------
 Rotational constants (GHZ):         900.1710229         399.7164108         276.8032993
 Leave Link  202 at Tue May 11 14:42:35 2021, MaxMem=   104857600 cpu:               1.1 elap:               0.1
 (Enter /data/apps/g16_2/l301.exe)
 Standard basis: 6-31G(d) (6D, 7F)
 Ernie: Thresh=  0.10000D-02 Tol=  0.10000D-05 Strict=F.
 There are    15 symmetry adapted cartesian basis functions of A'  symmetry.
 There are     4 symmetry adapted cartesian basis functions of A"  symmetry.
 There are    15 symmetry adapted basis functions of A'  symmetry.
 There are     4 symmetry adapted basis functions of A"  symmetry.
    19 basis functions,    36 primitive gaussians,    19 cartesian basis functions
     5 alpha electrons        5 beta electrons
       nuclear repulsion energy         9.0627864044 Hartrees.
 IExCor=  402 DFT=T Ex+Corr=B3LYP ExCW=0 ScaHFX=  0.200000
 ScaDFX=  0.800000  0.720000  1.000000  0.810000 ScalE2=  1.000000  1.000000
 IRadAn=      5 IRanWt=     -1 IRanGd=            0 ICorTp=0 IEmpDi=  4
 NAtoms=    3 NActive=    3 NUniq=    3 SFac= 1.00D+00 NAtFMM=   60 NAOKFM=F Big=F
 Integral buffers will be    131072 words long.
 Raffenetti 2 integral format.
 Two-electron integral symmetry is turned on.
 Leave Link  301 at Tue May 11 14:42:37 2021, MaxMem=   104857600 cpu:               3.2 elap:               0.3
 (Enter /data/apps/g16_2/l302.exe)
 NPDir=0 NMtPBC=     1 NCelOv=     1 NCel=       1 NClECP=     1 NCelD=      1
         NCelK=      1 NCelE2=     1 NClLst=     1 CellRange=     0.0.
 One-electron integrals computed using PRISM.
 One-electron integral symmetry used in STVInt
 NBasis=    19 RedAO= T EigKep=  2.28D-02  NBF=    15     4
 NBsUse=    19 1.00D-06 EigRej= -1.00D+00 NBFU=    15     4
 Precomputing XC quadrature grid using
 IXCGrd= 4 IRadAn=           5 IRanWt=          -1 IRanGd=           0 AccXCQ= 0.00D+00.
 Generated NRdTot=       0 NPtTot=           0 NUsed=           0 NTot=          32
 NSgBfM=    19    19    19    19    19 MxSgAt=     3 MxSgA2=     3.
 Leave Link  302 at Tue May 11 14:42:39 2021, MaxMem=   104857600 cpu:               5.9 elap:               0.3
 (Enter /data/apps/g16_2/l303.exe)
 DipDrv:  MaxL=1.
 Leave Link  303 at Tue May 11 14:42:40 2021, MaxMem=   104857600 cpu:               2.8 elap:               0.2
 (Enter /data/apps/g16_2/l401.exe)
 ExpMin= 1.61D-01 ExpMax= 5.48D+03 ExpMxC= 8.25D+02 IAcc=3 IRadAn=         5 AccDes= 0.00D+00
 Harris functional with IExCor=  402 and IRadAn=       5 diagonalized for initial guess.
 HarFok:  IExCor=  402 AccDes= 0.00D+00 IRadAn=         5 IDoV= 1 UseB2=F ITyADJ=14
 ICtDFT=  3500011 ScaDFX=  1.000000  1.000000  1.000000  1.000000
 FoFCou: FMM=F IPFlag=           0 FMFlag=      100000 FMFlg1=           0
         NFxFlg=           0 DoJE=T BraDBF=F KetDBF=T FulRan=T
         wScrn=  0.000000 ICntrl=       500 IOpCl=  0 I1Cent=   200000004 NGrid=           0
         NMat0=    1 NMatS0=      1 NMatT0=    0 NMatD0=    1 NMtDS0=    0 NMtDT0=    0
 Petite list used in FoFCou.
 Harris En= -76.4471443419801    
 JPrj=0 DoOrth=F DoCkMO=F.
 Initial guess orbital symmetries:
       Occupied  (A') (A') (A') (A') (A")
       Virtual   (A') (A') (A') (A') (A") (A') (A') (A') (A") (A')
                 (A") (A') (A') (A')
 The electronic state of the initial guess is 1-A'.
 Leave Link  401 at Tue May 11 14:42:42 2021, MaxMem=   104857600 cpu:               5.2 elap:               0.3
 (Enter /data/apps/g16_2/l502.exe)
 Keep R1 ints in memory in symmetry-blocked form, NReq=20729874.
 FoFCou: FMM=F IPFlag=           0 FMFlag=           0 FMFlg1=           0
         NFxFlg=           0 DoJE=F BraDBF=F KetDBF=F FulRan=T
         wScrn=  0.000000 ICntrl=       600 IOpCl=  0 I1Cent=           0 NGrid=           0
         NMat0=    1 NMatS0=    190 NMatT0=    0 NMatD0=    1 NMtDS0=    0 NMtDT0=    0
 Petite list used in FoFCou.
 Closed shell SCF:
 Using DIIS extrapolation, IDIIS=  1040.
 NGot=   104857600 LenX=   104844796 LenY=   104843914
 Requested convergence on RMS density matrix=1.00D-08 within 128 cycles.
 Requested convergence on MAX density matrix=1.00D-06.
 Requested convergence on             energy=1.00D-06.
 No special actions if energy rises.
 Integral accuracy reduced to 1.0D-05 until final iterations.

 Cycle   1  Pass 0  IDiag  1:
 E= -76.3295258436391    
 DIIS: error= 7.73D-02 at cycle   1 NSaved=   1.
 NSaved= 1 IEnMin= 1 EnMin= -76.3295258436391     IErMin= 1 ErrMin= 7.73D-02
 ErrMax= 7.73D-02  0.00D+00 EMaxC= 1.00D-01 BMatC= 1.05D-01 BMatP= 1.05D-01
 IDIUse=3 WtCom= 2.27D-01 WtEn= 7.73D-01
 Coeff-Com:  0.100D+01
 Coeff-En:   0.100D+01
 Coeff:      0.100D+01
 Gap=     0.208 Goal=   None    Shift=    0.000
 GapD=    0.208 DampG=1.000 DampE=0.500 DampFc=0.5000 IDamp=-1.
 Damping current iteration by 5.00D-01
 RMSDP=2.99D-02 MaxDP=2.26D-01              OVMax= 2.00D-01

 Cycle   2  Pass 0  IDiag  1:
 E= -76.3563304869186     Delta-E=       -0.026804643279 Rises=F Damp=T
 DIIS: error= 1.94D-02 at cycle   2 NSaved=   2.
 NSaved= 2 IEnMin= 2 EnMin= -76.3563304869186     IErMin= 2 ErrMin= 1.94D-02
 ErrMax= 1.94D-02  0.00D+00 EMaxC= 1.00D-01 BMatC= 6.55D-03 BMatP= 1.05D-01
 IDIUse=3 WtCom= 8.06D-01 WtEn= 1.94D-01
 Coeff-Com:  0.184D+00 0.816D+00
 Coeff-En:   0.300D+00 0.700D+00
 Coeff:      0.207D+00 0.793D+00
 Gap=     0.337 Goal=   None    Shift=    0.000
 RMSDP=3.67D-03 MaxDP=3.88D-02 DE=-2.68D-02 OVMax= 1.15D-01

 Cycle   3  Pass 0  IDiag  1:
 E= -76.4079038307779     Delta-E=       -0.051573343859 Rises=F Damp=F
 DIIS: error= 3.31D-03 at cycle   3 NSaved=   3.
 NSaved= 3 IEnMin= 3 EnMin= -76.4079038307779     IErMin= 3 ErrMin= 3.31D-03
 ErrMax= 3.31D-03  0.00D+00 EMaxC= 1.00D-01 BMatC= 2.13D-04 BMatP= 6.55D-03
 IDIUse=3 WtCom= 9.67D-01 WtEn= 3.31D-02
 Coeff-Com:  0.405D-01-0.179D-02 0.961D+00
 Coeff-En:   0.000D+00 0.000D+00 0.100D+01
 Coeff:      0.392D-01-0.173D-02 0.963D+00
 Gap=     0.352 Goal=   None    Shift=    0.000
 RMSDP=4.95D-04 MaxDP=4.16D-03 DE=-5.16D-02 OVMax= 3.34D-03

 Cycle   4  Pass 0  IDiag  1:
 E= -76.4080488102795     Delta-E=       -0.000144979502 Rises=F Damp=F
 DIIS: error= 3.75D-04 at cycle   4 NSaved=   4.
 NSaved= 4 IEnMin= 4 EnMin= -76.4080488102795     IErMin= 4 ErrMin= 3.75D-04
 ErrMax= 3.75D-04  0.00D+00 EMaxC= 1.00D-01 BMatC= 2.28D-06 BMatP= 2.13D-04
 IDIUse=3 WtCom= 9.96D-01 WtEn= 3.75D-03
 Coeff-Com:  0.599D-02-0.170D-01 0.204D+00 0.807D+00
 Coeff-En:   0.000D+00 0.000D+00 0.000D+00 0.100D+01
 Coeff:      0.597D-02-0.170D-01 0.203D+00 0.808D+00
 Gap=     0.352 Goal=   None    Shift=    0.000
 RMSDP=3.95D-05 MaxDP=1.85D-04 DE=-1.45D-04 OVMax= 2.80D-04

 Cycle   5  Pass 0  IDiag  1:
 E= -76.4080504296655     Delta-E=       -0.000001619386 Rises=F Damp=F
 DIIS: error= 5.30D-05 at cycle   5 NSaved=   5.
 NSaved= 5 IEnMin= 5 EnMin= -76.4080504296655     IErMin= 5 ErrMin= 5.30D-05
 ErrMax= 5.30D-05  0.00D+00 EMaxC= 1.00D-01 BMatC= 3.92D-08 BMatP= 2.28D-06
 IDIUse=1 WtCom= 1.00D+00 WtEn= 0.00D+00
 Coeff-Com:  0.489D-03-0.284D-03-0.111D-02-0.907D-02 0.101D+01
 Coeff:      0.489D-03-0.284D-03-0.111D-02-0.907D-02 0.101D+01
 Gap=     0.352 Goal=   None    Shift=    0.000
 RMSDP=7.87D-06 MaxDP=7.00D-05 DE=-1.62D-06 OVMax= 4.47D-05

 Initial convergence to 1.0D-05 achieved.  Increase integral accuracy.
 Cycle   6  Pass 1  IDiag  1:
 E= -76.4080506829763     Delta-E=       -0.000000253311 Rises=F Damp=F
 DIIS: error= 3.03D-07 at cycle   1 NSaved=   1.
 NSaved= 1 IEnMin= 1 EnMin= -76.4080506829763     IErMin= 1 ErrMin= 3.03D-07
 ErrMax= 3.03D-07  0.00D+00 EMaxC= 1.00D-01 BMatC= 2.20D-12 BMatP= 2.20D-12
 IDIUse=1 WtCom= 1.00D+00 WtEn= 0.00D+00
 Coeff-Com:  0.100D+01
 Coeff:      0.100D+01
 Gap=     0.352 Goal=   None    Shift=    0.000
 RMSDP=7.87D-06 MaxDP=7.00D-05 DE=-2.53D-07 OVMax= 1.10D-06

 Cycle   7  Pass 1  IDiag  1:
 E= -76.4080506829796     Delta-E=       -0.000000000003 Rises=F Damp=F
 DIIS: error= 4.59D-08 at cycle   2 NSaved=   2.
 NSaved= 2 IEnMin= 2 EnMin= -76.4080506829796     IErMin= 2 ErrMin= 4.59D-08
 ErrMax= 4.59D-08  0.00D+00 EMaxC= 1.00D-01 BMatC= 4.30D-14 BMatP= 2.20D-12
 IDIUse=1 WtCom= 1.00D+00 WtEn= 0.00D+00
 Coeff-Com: -0.624D-01 0.106D+01
 Coeff:     -0.624D-01 0.106D+01
 Gap=     0.352 Goal=   None    Shift=    0.000
 RMSDP=1.41D-08 MaxDP=1.08D-07 DE=-3.33D-12 OVMax= 1.22D-07

 Cycle   8  Pass 1  IDiag  1:
 E= -76.4080506829796     Delta-E=        0.000000000000 Rises=F Damp=F
 DIIS: error= 5.08D-08 at cycle   3 NSaved=   3.
 NSaved= 3 IEnMin= 2 EnMin= -76.4080506829796     IErMin= 2 ErrMin= 4.59D-08
 ErrMax= 5.08D-08  0.00D+00 EMaxC= 1.00D-01 BMatC= 4.29D-14 BMatP= 4.30D-14
 IDIUse=1 WtCom= 1.00D+00 WtEn= 0.00D+00
 Coeff-Com: -0.325D-01 0.558D+00 0.475D+00
 Coeff:     -0.325D-01 0.558D+00 0.475D+00
 Gap=     0.352 Goal=   None    Shift=    0.000
 RMSDP=7.91D-09 MaxDP=5.29D-08 DE= 0.00D+00 OVMax= 5.52D-08

 SCF Done:  E(RB3LYP) =  -76.4080506830     A.U. after    8 cycles
            NFock=  8  Conv=0.79D-08     -V/T= 2.0080
 KE= 7.580239204944D+01 PE=-1.987151672138D+02 EE= 3.744193807698D+01
 Leave Link  502 at Tue May 11 14:42:44 2021, MaxMem=   104857600 cpu:               4.9 elap:               0.2
 (Enter /data/apps/g16_2/l601.exe)
 Copying SCF densities to generalized density rwf, IOpCl= 0 IROHF=0.

 **********************************************************************

            Population analysis using the SCF Density.

 **********************************************************************

 Orbital symmetries:
       Occupied  (A') (A') (A') (A') (A")
       Virtual   (A') (A') (A') (A') (A") (A') (A') (A') (A") (A')
                 (A") (A') (A') (A')
 The electronic state is 1-A'.
 Alpha  occ. eigenvalues --  -19.13517  -0.99229  -0.52607  -0.36020  -0.28903
 Alpha virt. eigenvalues --    0.06259   0.14926   0.79525   0.83838   0.89228
 Alpha virt. eigenvalues --    0.89284   1.07167   1.17357   1.74237   1.74704
 Alpha virt. eigenvalues --    1.78694   2.28698   2.57625   3.56115
          Condensed to atoms (all electrons):
               1          2          3
     1  O    8.296254   0.244205   0.244205
     2  H    0.244205   0.383760  -0.020296
     3  H    0.244205  -0.020296   0.383760
 Mulliken charges:
               1
     1  O   -0.784664
     2  H    0.392332
     3  H    0.392332
 Sum of Mulliken charges =  -0.00000
 Mulliken charges with hydrogens summed into heavy atoms:
               1
     1  O   -0.000000
 Electronic spatial extent (au):  <R**2>=             19.1825
 Charge=             -0.0000 electrons
 Dipole moment (field-independent basis, Debye):
    X=             -0.0000    Y=             -2.0037    Z=             -0.0000  Tot=              2.0037
 Quadrupole moment (field-independent basis, Debye-Ang):
   XX=             -4.0234   YY=             -6.1369   ZZ=             -7.2048
   XY=             -0.0000   XZ=              0.0000   YZ=              0.0000
 Traceless Quadrupole moment (field-independent basis, Debye-Ang):
   XX=              1.7650   YY=             -0.3485   ZZ=             -1.4164
   XY=             -0.0000   XZ=              0.0000   YZ=              0.0000
 Octapole moment (field-independent basis, Debye-Ang**2):
  XXX=             -0.0000  YYY=             -1.1181  ZZZ=              0.0000  XYY=              0.0000
  XXY=             -1.2386  XXZ=             -0.0000  XZZ=             -0.0000  YZZ=             -0.3083
  YYZ=              0.0000  XYZ=             -0.0000
 Hexadecapole moment (field-independent basis, Debye-Ang**3):
 XXXX=             -5.8877 YYYY=             -6.1882 ZZZZ=             -5.2157 XXXY=              0.0000
 XXXZ=             -0.0000 YYYX=              0.0000 YYYZ=             -0.0000 ZZZX=             -0.0000
 ZZZY=             -0.0000 XXYY=             -1.7579 XXZZ=             -2.1378 YYZZ=             -1.9392
 XXYZ=              0.0000 YYXZ=             -0.0000 ZZXY=              0.0000
 N-N= 9.062786404378D+00 E-N=-1.987151658134D+02  KE= 7.580239204944D+01
 Symmetry A'   KE= 7.120900088013D+01
 Symmetry A"   KE= 4.593391169305D+00
 No NMR shielding tensors so no spin-rotation constants.
 Leave Link  601 at Tue May 11 14:42:45 2021, MaxMem=   104857600 cpu:               3.1 elap:               0.5
 (Enter /data/apps/g16_2/l701.exe)
 ... and contract with generalized density number  0.
 Compute integral first derivatives.
 Leave Link  701 at Tue May 11 14:42:47 2021, MaxMem=   104857600 cpu:               4.8 elap:               0.2
 (Enter /data/apps/g16_2/l702.exe)
 L702 exits ... SP integral derivatives will be done elsewhere.
 Leave Link  702 at Tue May 11 14:42:49 2021, MaxMem=   104857600 cpu:               1.6 elap:               0.1
 (Enter /data/apps/g16_2/l703.exe)
 Integral derivatives from FoFJK, PRISM(SPDF).
 Compute integral first derivatives, UseDBF=F ICtDFT=           0.
 Calling FoFJK, ICntrl=      2127 FMM=F ISym2X=1 I1Cent= 0 IOpClX= 0 NMat=1 NMatS=1 NMatT=0.
 FoFJK:  IHMeth= 1 ICntrl=    2127 DoSepK=F KAlg= 0 I1Cent=           0 FoldK=F
 IRaf=         0 NMat=       1 IRICut=       1 DoRegI=T DoRafI=F ISym2E= 1 IDoP0=0 IntGTp=1.
 FoFCou: FMM=F IPFlag=           0 FMFlag=      100000 FMFlg1=         800
         NFxFlg=           0 DoJE=F BraDBF=F KetDBF=F FulRan=T
         wScrn=  0.000000 ICntrl=      2127 IOpCl=  0 I1Cent=           0 NGrid=           0
         NMat0=    1 NMatS0=      1 NMatT0=    0 NMatD0=    1 NMtDS0=    0 NMtDT0=    0
 Petite list used in FoFCou.
 Leave Link  703 at Tue May 11 14:42:50 2021, MaxMem=   104857600 cpu:               6.1 elap:               0.3
 (Enter /data/apps/g16_2/l716.exe)
 Dipole        =-1.07992442D-06-7.88300420D-01-1.20595080D-16
 ***** Axes restored to original set *****
 -------------------------------------------------------------------
 Center     Atomic                   Forces (Hartrees/Bohr)
 Number     Number              X              Y              Z
 -------------------------------------------------------------------
      1        8          -0.006059127   -0.005654783   -0.006443633
      2        1          -0.004230460    0.006212835    0.007079534
      3        1           0.010289587   -0.000558052   -0.000635901
 -------------------------------------------------------------------
 Cartesian Forces:  Max     0.010289587 RMS     0.005994602
 Leave Link  716 at Tue May 11 14:42:52 2021, MaxMem=   104857600 cpu:               2.0 elap:               0.1
 (Enter /data/apps/g16_2/l103.exe)

 GradGradGradGradGradGradGradGradGradGradGradGradGradGradGradGradGradGrad
 Berny optimization.
 FormGI is forming the generalized inverse of G from B-inverse, IUseBI=4.
 Internal  Forces:  Max     0.017265502 RMS     0.010549346
 Search for a local minimum.
 Step number   1 out of a maximum of   20
 All quantities printed in internal units (Hartrees-Bohrs-Radians)
 RMS Force = .10549D-01 SwitMx=.10000D-02 MixMth= 1
 Mixed Optimization -- RFO/linear search
 Second derivative matrix not updated -- first step.
 The second derivative matrix:
                          R1        R2        A1
           R1           0.53377
           R2           0.00000   0.53378
           A1           0.00000   0.00000   0.16000
 ITU=  0
     Eigenvalues ---    0.16000   0.53377   0.53378
 RFO step:  Lambda=-1.90792986D-03 EMin= 1.60000000D-01
 Linear search not attempted -- first point.
 Iteration  1 RMS(Cart)=  0.06233910 RMS(Int)=  0.00214235
 Iteration  2 RMS(Cart)=  0.00177513 RMS(Int)=  0.00000021
 Iteration  3 RMS(Cart)=  0.00000022 RMS(Int)=  0.00000000
 ITry= 1 IFail=0 DXMaxC= 6.70D-02 DCOld= 1.00D+10 DXMaxT= 3.00D-01 DXLimC= 3.00D+00 Rises=F
 ClnCor:  largest displacement from symmetrization is 1.15D-15 for atom     3.
 Variable       Old X    -DE/DX   Delta X   Delta X   Delta X     New X
                                 (Linear)    (Quad)   (Total)
    R1        1.83303  -0.00423   0.00000  -0.00790  -0.00790   1.82514
    R2        1.83303  -0.00423   0.00000  -0.00789  -0.00789   1.82514
    A1        1.91063  -0.01727   0.00000  -0.10664  -0.10664   1.80399
         Item               Value     Threshold  Converged?
 Maximum Force            0.017266     0.000450     NO 
 RMS     Force            0.010549     0.000300     NO 
 Maximum Displacement     0.066963     0.001800     NO 
 RMS     Displacement     0.063156     0.001200     NO 
 Predicted change in Energy=-9.649305D-04
 Lowest energy point so far.  Saving SCF results.
 GradGradGradGradGradGradGradGradGradGradGradGradGradGradGradGradGradGrad

 Leave Link  103 at Tue May 11 14:42:52 2021, MaxMem=   104857600 cpu:               0.8 elap:               0.1
 (Enter /data/apps/g16_2/l202.exe)
                          Input orientation:                          
 ---------------------------------------------------------------------
 Center     Atomic      Atomic             Coordinates (Angstroms)
 Number     Number       Type             X           Y           Z
 ---------------------------------------------------------------------
      1          8           0        0.172338    2.107211   -0.015884
      2          1           0        1.136786    2.141162    0.022804
      3          1           0       -0.100614    2.718297    0.680450
 ---------------------------------------------------------------------
                    Distance matrix (angstroms):
                    1          2          3
     1  O    0.000000
     2  H    0.965821   0.000000
     3  H    0.965821   1.515501   0.000000
 Stoichiometry    H2O
 Framework group  CS[SG(H2O)]
 Deg. of freedom     3
 Full point group                 CS      NOp   2
 RotChk:  IX=0 Diff= 3.88D-06
 Largest Abelian subgroup         CS      NOp   2
 Largest concise Abelian subgroup C1      NOp   1
                         Standard orientation:                         
 ---------------------------------------------------------------------
 Center     Atomic      Atomic             Coordinates (Angstroms)
 Number     Number       Type             X           Y           Z
 ---------------------------------------------------------------------
      1          8           0        0.000000    0.119770   -0.000000
      2          1           0        0.757751   -0.479082   -0.000000
      3          1           0       -0.757751   -0.479082    0.000000
 ---------------------------------------------------------------------
 Rotational constants (GHZ):         787.2416916         436.6661517         280.8722910
 Leave Link  202 at Tue May 11 14:42:53 2021, MaxMem=   104857600 cpu:               0.9 elap:               0.1
 (Enter /data/apps/g16_2/l301.exe)
 Standard basis: 6-31G(d) (6D, 7F)
 Ernie: Thresh=  0.10000D-02 Tol=  0.10000D-05 Strict=F.
 There are    15 symmetry adapted cartesian basis functions of A'  symmetry.
 There are     4 symmetry adapted cartesian basis functions of A"  symmetry.
 There are    15 symmetry adapted basis functions of A'  symmetry.
 There are     4 symmetry adapted basis functions of A"  symmetry.
    19 basis functions,    36 primitive gaussians,    19 cartesian basis functions
     5 alpha electrons        5 beta electrons
       nuclear repulsion energy         9.1156420171 Hartrees.
 IExCor=  402 DFT=T Ex+Corr=B3LYP ExCW=0 ScaHFX=  0.200000
 ScaDFX=  0.800000  0.720000  1.000000  0.810000 ScalE2=  1.000000  1.000000
 IRadAn=      5 IRanWt=     -1 IRanGd=            0 ICorTp=0 IEmpDi=  4
 NAtoms=    3 NActive=    3 NUniq=    3 SFac= 1.00D+00 NAtFMM=   60 NAOKFM=F Big=F
 Integral buffers will be    131072 words long.
 Raffenetti 2 integral format.
 Two-electron integral symmetry is turned on.
 Leave Link  301 at Tue May 11 14:42:53 2021, MaxMem=   104857600 cpu:               2.3 elap:               0.1
 (Enter /data/apps/g16_2/l302.exe)
 NPDir=0 NMtPBC=     1 NCelOv=     1 NCel=       1 NClECP=     1 NCelD=      1
         NCelK=      1 NCelE2=     1 NClLst=     1 CellRange=     0.0.
 One-electron integrals computed using PRISM.
 One-electron integral symmetry used in STVInt
 NBasis=    19 RedAO= T EigKep=  2.26D-02  NBF=    15     4
 NBsUse=    19 1.00D-06 EigRej= -1.00D+00 NBFU=    15     4
 Precomputing XC quadrature grid using
 IXCGrd= 4 IRadAn=           5 IRanWt=          -1 IRanGd=           0 AccXCQ= 0.00D+00.
 Generated NRdTot=       0 NPtTot=           0 NUsed=           0 NTot=          32
 NSgBfM=    19    19    19    19    19 MxSgAt=     3 MxSgA2=     3.
 Leave Link  302 at Tue May 11 14:42:54 2021, MaxMem=   104857600 cpu:               5.9 elap:               0.3
 (Enter /data/apps/g16_2/l303.exe)
 DipDrv:  MaxL=1.
 Leave Link  303 at Tue May 11 14:42:54 2021, MaxMem=   104857600 cpu:               1.6 elap:               0.1
 (Enter /data/apps/g16_2/l401.exe)
 Initial guess from the checkpoint file:  "wat_opt.chk"
 B after Tr=     0.000000    0.000000    0.000000
         Rot=    1.000000    0.000000    0.000000   -0.000001 Ang=  -0.00 deg.
 Guess basis will be translated and rotated to current coordinates.
 JPrj=2 DoOrth=T DoCkMO=T.
 Initial guess orbital symmetries:
       Occupied  (A') (A') (A') (A') (A")
       Virtual   (A') (A') (A') (A') (A") (A') (A') (A') (A") (A')
                 (A") (A') (A') (A')
 The electronic state of the initial guess is 1-A'.
 Generating alternative initial guess.
 ExpMin= 1.61D-01 ExpMax= 5.48D+03 ExpMxC= 8.25D+02 IAcc=3 IRadAn=         5 AccDes= 0.00D+00
 Harris functional with IExCor=  402 and IRadAn=       5 diagonalized for initial guess.
 HarFok:  IExCor=  402 AccDes= 0.00D+00 IRadAn=         5 IDoV= 1 UseB2=F ITyADJ=14
 ICtDFT=  3500011 ScaDFX=  1.000000  1.000000  1.000000  1.000000
 FoFCou: FMM=F IPFlag=           0 FMFlag=      100000 FMFlg1=           0
         NFxFlg=           0 DoJE=T BraDBF=F KetDBF=T FulRan=T
         wScrn=  0.000000 ICntrl=       500 IOpCl=  0 I1Cent=   200000004 NGrid=           0
         NMat0=    1 NMatS0=      1 NMatT0=    0 NMatD0=    1 NMtDS0=    0 NMtDT0=    0
 Petite list used in FoFCou.
 Harris En= -76.4473001384588    
 Leave Link  401 at Tue May 11 14:42:55 2021, MaxMem=   104857600 cpu:               6.3 elap:               0.3
 (Enter /data/apps/g16_2/l502.exe)
 Keep R1 ints in memory in symmetry-blocked form, NReq=20729874.
 FoFCou: FMM=F IPFlag=           0 FMFlag=           0 FMFlg1=           0
         NFxFlg=           0 DoJE=F BraDBF=F KetDBF=F FulRan=T
         wScrn=  0.000000 ICntrl=       600 IOpCl=  0 I1Cent=           0 NGrid=           0
         NMat0=    1 NMatS0=    190 NMatT0=    0 NMatD0=    1 NMtDS0=    0 NMtDT0=    0
 Petite list used in FoFCou.
 Closed shell SCF:
 Using DIIS extrapolation, IDIIS=  1040.
 NGot=   104857600 LenX=   104844796 LenY=   104843914
 Requested convergence on RMS density matrix=1.00D-08 within 128 cycles.
 Requested convergence on MAX density matrix=1.00D-06.
 Requested convergence on             energy=1.00D-06.
 No special actions if energy rises.
 Integral accuracy reduced to 1.0D-05 until final iterations.

 Cycle   1  Pass 0  IDiag  1:
 E= -76.4085658105297    
 DIIS: error= 3.66D-03 at cycle   1 NSaved=   1.
 NSaved= 1 IEnMin= 1 EnMin= -76.4085658105297     IErMin= 1 ErrMin= 3.66D-03
 ErrMax= 3.66D-03  0.00D+00 EMaxC= 1.00D-01 BMatC= 3.30D-04 BMatP= 3.30D-04
 IDIUse=3 WtCom= 9.63D-01 WtEn= 3.66D-02
 Coeff-Com:  0.100D+01
 Coeff-En:   0.100D+01
 Coeff:      0.100D+01
 Gap=     0.355 Goal=   None    Shift=    0.000
 GapD=    0.355 DampG=1.000 DampE=1.000 DampFc=1.0000 IDamp=-1.
 RMSDP=1.32D-03 MaxDP=8.53D-03              OVMax= 8.60D-03

 Cycle   2  Pass 0  IDiag  1:
 E= -76.4089260886293     Delta-E=       -0.000360278100 Rises=F Damp=F
 DIIS: error= 7.40D-04 at cycle   2 NSaved=   2.
 NSaved= 2 IEnMin= 2 EnMin= -76.4089260886293     IErMin= 2 ErrMin= 7.40D-04
 ErrMax= 7.40D-04  0.00D+00 EMaxC= 1.00D-01 BMatC= 8.81D-06 BMatP= 3.30D-04
 IDIUse=3 WtCom= 9.93D-01 WtEn= 7.40D-03
 Coeff-Com:  0.629D-01 0.937D+00
 Coeff-En:   0.000D+00 0.100D+01
 Coeff:      0.625D-01 0.938D+00
 Gap=     0.355 Goal=   None    Shift=    0.000
 RMSDP=1.28D-04 MaxDP=5.00D-04 DE=-3.60D-04 OVMax= 1.07D-03

 Cycle   3  Pass 0  IDiag  1:
 E= -76.4089328649496     Delta-E=       -0.000006776320 Rises=F Damp=F
 DIIS: error= 2.29D-04 at cycle   3 NSaved=   3.
 NSaved= 3 IEnMin= 3 EnMin= -76.4089328649496     IErMin= 3 ErrMin= 2.29D-04
 ErrMax= 2.29D-04  0.00D+00 EMaxC= 1.00D-01 BMatC= 1.21D-06 BMatP= 8.81D-06
 IDIUse=3 WtCom= 9.98D-01 WtEn= 2.29D-03
 Coeff-Com: -0.126D-01 0.231D+00 0.782D+00
 Coeff-En:   0.000D+00 0.000D+00 0.100D+01
 Coeff:     -0.126D-01 0.231D+00 0.782D+00
 Gap=     0.355 Goal=   None    Shift=    0.000
 RMSDP=4.56D-05 MaxDP=3.30D-04 DE=-6.78D-06 OVMax= 3.08D-04

 Cycle   4  Pass 0  IDiag  1:
 E= -76.4089334448842     Delta-E=       -0.000000579935 Rises=F Damp=F
 DIIS: error= 1.52D-04 at cycle   4 NSaved=   4.
 NSaved= 4 IEnMin= 4 EnMin= -76.4089334448842     IErMin= 4 ErrMin= 1.52D-04
 ErrMax= 1.52D-04  0.00D+00 EMaxC= 1.00D-01 BMatC= 3.93D-07 BMatP= 1.21D-06
 IDIUse=3 WtCom= 9.98D-01 WtEn= 1.52D-03
 Coeff-Com: -0.852D-02 0.105D+00 0.455D+00 0.449D+00
 Coeff-En:   0.000D+00 0.000D+00 0.167D+00 0.833D+00
 Coeff:     -0.851D-02 0.105D+00 0.454D+00 0.449D+00
 Gap=     0.355 Goal=   None    Shift=    0.000
 RMSDP=2.24D-05 MaxDP=1.66D-04 DE=-5.80D-07 OVMax= 1.55D-04

 Cycle   5  Pass 0  IDiag  1:
 E= -76.4089337226981     Delta-E=       -0.000000277814 Rises=F Damp=F
 DIIS: error= 3.76D-06 at cycle   5 NSaved=   5.
 NSaved= 5 IEnMin= 5 EnMin= -76.4089337226981     IErMin= 5 ErrMin= 3.76D-06
 ErrMax= 3.76D-06  0.00D+00 EMaxC= 1.00D-01 BMatC= 2.48D-10 BMatP= 3.93D-07
 IDIUse=1 WtCom= 1.00D+00 WtEn= 0.00D+00
 Coeff-Com:  0.388D-03-0.651D-02-0.235D-01 0.113D-02 0.103D+01
 Coeff:      0.388D-03-0.651D-02-0.235D-01 0.113D-02 0.103D+01
 Gap=     0.355 Goal=   None    Shift=    0.000
 RMSDP=9.51D-07 MaxDP=4.69D-06 DE=-2.78D-07 OVMax= 8.24D-06

 Initial convergence to 1.0D-05 achieved.  Increase integral accuracy.
 Cycle   6  Pass 1  IDiag  1:
 E= -76.4089344869033     Delta-E=       -0.000000764205 Rises=F Damp=F
 DIIS: error= 4.62D-07 at cycle   1 NSaved=   1.
 NSaved= 1 IEnMin= 1 EnMin= -76.4089344869033     IErMin= 1 ErrMin= 4.62D-07
 ErrMax= 4.62D-07  0.00D+00 EMaxC= 1.00D-01 BMatC= 3.93D-12 BMatP= 3.93D-12
 IDIUse=1 WtCom= 1.00D+00 WtEn= 0.00D+00
 Coeff-Com:  0.100D+01
 Coeff:      0.100D+01
 Gap=     0.355 Goal=   None    Shift=    0.000
 RMSDP=9.51D-07 MaxDP=4.69D-06 DE=-7.64D-07 OVMax= 1.44D-06

 Cycle   7  Pass 1  IDiag  1:
 E= -76.4089344869037     Delta-E=       -0.000000000000 Rises=F Damp=F
 DIIS: error= 5.41D-07 at cycle   2 NSaved=   2.
 NSaved= 2 IEnMin= 2 EnMin= -76.4089344869037     IErMin= 1 ErrMin= 4.62D-07
 ErrMax= 5.41D-07  0.00D+00 EMaxC= 1.00D-01 BMatC= 4.84D-12 BMatP= 3.93D-12
 IDIUse=1 WtCom= 1.00D+00 WtEn= 0.00D+00
 Coeff-Com:  0.529D+00 0.471D+00
 Coeff:      0.529D+00 0.471D+00
 Gap=     0.355 Goal=   None    Shift=    0.000
 RMSDP=8.83D-08 MaxDP=6.53D-07 DE=-4.26D-13 OVMax= 6.16D-07

 Cycle   8  Pass 1  IDiag  1:
 E= -76.4089344869071     Delta-E=       -0.000000000003 Rises=F Damp=F
 DIIS: error= 8.99D-08 at cycle   3 NSaved=   3.
 NSaved= 3 IEnMin= 3 EnMin= -76.4089344869071     IErMin= 3 ErrMin= 8.99D-08
 ErrMax= 8.99D-08  0.00D+00 EMaxC= 1.00D-01 BMatC= 1.09D-13 BMatP= 3.93D-12
 IDIUse=1 WtCom= 1.00D+00 WtEn= 0.00D+00
 Coeff-Com: -0.832D-02 0.120D+00 0.888D+00
 Coeff:     -0.832D-02 0.120D+00 0.888D+00
 Gap=     0.355 Goal=   None    Shift=    0.000
 RMSDP=1.18D-08 MaxDP=7.95D-08 DE=-3.41D-12 OVMax= 1.05D-07

 Cycle   9  Pass 1  IDiag  1:
 E= -76.4089344869072     Delta-E=       -0.000000000000 Rises=F Damp=F
 DIIS: error= 9.15D-09 at cycle   4 NSaved=   4.
 NSaved= 4 IEnMin= 4 EnMin= -76.4089344869072     IErMin= 4 ErrMin= 9.15D-09
 ErrMax= 9.15D-09  0.00D+00 EMaxC= 1.00D-01 BMatC= 1.08D-15 BMatP= 1.09D-13
 IDIUse=1 WtCom= 1.00D+00 WtEn= 0.00D+00
 Coeff-Com: -0.111D-01 0.207D-01 0.189D+00 0.801D+00
 Coeff:     -0.111D-01 0.207D-01 0.189D+00 0.801D+00
 Gap=     0.355 Goal=   None    Shift=    0.000
 RMSDP=1.24D-09 MaxDP=4.68D-09 DE=-8.53D-14 OVMax= 1.02D-08

 SCF Done:  E(RB3LYP) =  -76.4089344869     A.U. after    9 cycles
            NFock=  9  Conv=0.12D-08     -V/T= 2.0076
 KE= 7.583020291901D+01 PE=-1.988149667506D+02 EE= 3.746018732763D+01
 Leave Link  502 at Tue May 11 14:42:55 2021, MaxMem=   104857600 cpu:               5.7 elap:               0.3
 (Enter /data/apps/g16_2/l701.exe)
 ... and contract with generalized density number  0.
 Compute integral first derivatives.
 Leave Link  701 at Tue May 11 14:42:56 2021, MaxMem=   104857600 cpu:               4.2 elap:               0.2
 (Enter /data/apps/g16_2/l702.exe)
 L702 exits ... SP integral derivatives will be done elsewhere.
 Leave Link  702 at Tue May 11 14:42:56 2021, MaxMem=   104857600 cpu:               1.7 elap:               0.1
 (Enter /data/apps/g16_2/l703.exe)
 Integral derivatives from FoFJK, PRISM(SPDF).
 Compute integral first derivatives, UseDBF=F ICtDFT=           0.
 Calling FoFJK, ICntrl=      2127 FMM=F ISym2X=1 I1Cent= 0 IOpClX= 0 NMat=1 NMatS=1 NMatT=0.
 FoFJK:  IHMeth= 1 ICntrl=    2127 DoSepK=F KAlg= 0 I1Cent=           0 FoldK=F
 IRaf=         0 NMat=       1 IRICut=       1 DoRegI=T DoRafI=F ISym2E= 1 IDoP0=0 IntGTp=1.
 FoFCou: FMM=F IPFlag=           0 FMFlag=      100000 FMFlg1=         800
         NFxFlg=           0 DoJE=F BraDBF=F KetDBF=F FulRan=T
         wScrn=  0.000000 ICntrl=      2127 IOpCl=  0 I1Cent=           0 NGrid=           0
         NMat0=    1 NMatS0=      1 NMatT0=    0 NMatD0=    1 NMtDS0=    0 NMtDT0=    0
 Petite list used in FoFCou.
 Leave Link  703 at Tue May 11 14:42:57 2021, MaxMem=   104857600 cpu:               5.1 elap:               0.2
 (Enter /data/apps/g16_2/l716.exe)
 Dipole        =-1.07381659D-08-8.25775224D-01 1.55182214D-16
 ***** Axes restored to original set *****
 -------------------------------------------------------------------
 Center     Atomic                   Forces (Hartrees/Bohr)
 Number     Number              X              Y              Z
 -------------------------------------------------------------------
      1        8          -0.001514037   -0.001412342   -0.001609366
      2        1           0.003010909   -0.000345071   -0.000393209
      3        1          -0.001496872    0.001757413    0.002002574
 -------------------------------------------------------------------
 Cartesian Forces:  Max     0.003010909 RMS     0.001685090
 Leave Link  716 at Tue May 11 14:42:58 2021, MaxMem=   104857600 cpu:               3.8 elap:               0.4
 (Enter /data/apps/g16_2/l103.exe)

 GradGradGradGradGradGradGradGradGradGradGradGradGradGradGradGradGradGrad
 Berny optimization.
 Using GEDIIS/GDIIS optimizer.
 FormGI is forming the generalized inverse of G from B-inverse, IUseBI=4.
 Internal  Forces:  Max     0.002978777 RMS     0.002536363
 Search for a local minimum.
 Step number   2 out of a maximum of   20
 All quantities printed in internal units (Hartrees-Bohrs-Radians)
 RMS Force = .25364D-02 SwitMx=.10000D-02 MixMth= 1
 Mixed Optimization -- RFO/linear search
 Update second derivatives using D2CorX and points    1    2
 DE= -8.84D-04 DEPred=-9.65D-04 R= 9.16D-01
 TightC=F SS=  1.41D+00  RLast= 1.07D-01 DXNew= 5.0454D-01 3.2166D-01
 Trust test= 9.16D-01 RLast= 1.07D-01 DXMaxT set to 3.22D-01
 The second derivative matrix:
                          R1        R2        A1
           R1           0.54924
           R2           0.01547   0.54924
           A1           0.02578   0.02578   0.16978
 ITU=  1  0
 Use linear search instead of GDIIS.
     Eigenvalues ---    0.16644   0.53377   0.56805
 RFO step:  Lambda=-2.20460610D-05 EMin= 1.66439042D-01
 Quartic linear search produced a step of -0.08187.
 Iteration  1 RMS(Cart)=  0.00568565 RMS(Int)=  0.00000995
 Iteration  2 RMS(Cart)=  0.00000732 RMS(Int)=  0.00000000
 Iteration  3 RMS(Cart)=  0.00000000 RMS(Int)=  0.00000000
 ITry= 1 IFail=0 DXMaxC= 5.82D-03 DCOld= 1.00D+10 DXMaxT= 3.22D-01 DXLimC= 3.00D+00 Rises=F
 ClnCor:  largest displacement from symmetrization is 6.43D-16 for atom     2.
 Variable       Old X    -DE/DX   Delta X   Delta X   Delta X     New X
                                 (Linear)    (Quad)   (Total)
    R1        1.82514   0.00298   0.00065   0.00437   0.00502   1.83016
    R2        1.82514   0.00298   0.00065   0.00437   0.00502   1.83016
    A1        1.80399   0.00125   0.00873  -0.00341   0.00532   1.80932
         Item               Value     Threshold  Converged?
 Maximum Force            0.002979     0.000450     NO 
 RMS     Force            0.002536     0.000300     NO 
 Maximum Displacement     0.005816     0.001800     NO 
 RMS     Displacement     0.005689     0.001200     NO 
 Predicted change in Energy=-1.852702D-05
 Lowest energy point so far.  Saving SCF results.
 GradGradGradGradGradGradGradGradGradGradGradGradGradGradGradGradGradGrad

 Leave Link  103 at Tue May 11 14:42:58 2021, MaxMem=   104857600 cpu:               1.2 elap:               0.1
 (Enter /data/apps/g16_2/l202.exe)
                          Input orientation:                          
 ---------------------------------------------------------------------
 Center     Atomic      Atomic             Coordinates (Angstroms)
 Number     Number       Type             X           Y           Z
 ---------------------------------------------------------------------
      1          8           0        0.172483    2.107346   -0.015729
      2          1           0        1.139719    2.139693    0.021130
      3          1           0       -0.103692    2.719631    0.681970
 ---------------------------------------------------------------------
                    Distance matrix (angstroms):
                    1          2          3
     1  O    0.000000
     2  H    0.968478   0.000000
     3  H    0.968478   1.522862   0.000000
 Stoichiometry    H2O
 Framework group  C2[C2(O),X(H2)]
 Deg. of freedom     2
 Full point group                 C2      NOp   2
 Omega: Change in point group or standard orientation.

 Old FWG=CS   [SG(H2O1)]
 New FWG=C02  [C2(O1),X(H2)]
 RotChk:  IX=0 Diff= 2.45D+00
 Largest Abelian subgroup         C2      NOp   2
 Largest concise Abelian subgroup C2      NOp   2
                         Standard orientation:                         
 ---------------------------------------------------------------------
 Center     Atomic      Atomic             Coordinates (Angstroms)
 Number     Number       Type             X           Y           Z
 ---------------------------------------------------------------------
      1          8           0        0.000000    0.000000    0.119695
      2          1           0       -0.000000    0.761431   -0.478780
      3          1           0       -0.000000   -0.761431   -0.478780
 ---------------------------------------------------------------------
 Rotational constants (GHZ):         788.2354558         432.4550742         279.2488466
 Leave Link  202 at Tue May 11 14:42:59 2021, MaxMem=   104857600 cpu:               2.5 elap:               0.1
 (Enter /data/apps/g16_2/l301.exe)
 Standard basis: 6-31G(d) (6D, 7F)
 Ernie: Thresh=  0.10000D-02 Tol=  0.10000D-05 Strict=F.
 There are    11 symmetry adapted cartesian basis functions of A   symmetry.
 There are     8 symmetry adapted cartesian basis functions of B   symmetry.
 There are    11 symmetry adapted basis functions of A   symmetry.
 There are     8 symmetry adapted basis functions of B   symmetry.
    19 basis functions,    36 primitive gaussians,    19 cartesian basis functions
     5 alpha electrons        5 beta electrons
       nuclear repulsion energy         9.0899053532 Hartrees.
 IExCor=  402 DFT=T Ex+Corr=B3LYP ExCW=0 ScaHFX=  0.200000
 ScaDFX=  0.800000  0.720000  1.000000  0.810000 ScalE2=  1.000000  1.000000
 IRadAn=      5 IRanWt=     -1 IRanGd=            0 ICorTp=0 IEmpDi=  4
 NAtoms=    3 NActive=    3 NUniq=    2 SFac= 2.25D+00 NAtFMM=   60 NAOKFM=F Big=F
 Integral buffers will be    131072 words long.
 Raffenetti 2 integral format.
 Two-electron integral symmetry is turned on.
 Leave Link  301 at Tue May 11 14:42:59 2021, MaxMem=   104857600 cpu:               2.5 elap:               0.1
 (Enter /data/apps/g16_2/l302.exe)
 NPDir=0 NMtPBC=     1 NCelOv=     1 NCel=       1 NClECP=     1 NCelD=      1
         NCelK=      1 NCelE2=     1 NClLst=     1 CellRange=     0.0.
 One-electron integrals computed using PRISM.
 One-electron integral symmetry used in STVInt
 NBasis=    19 RedAO= T EigKep=  2.27D-02  NBF=    11     8
 NBsUse=    19 1.00D-06 EigRej= -1.00D+00 NBFU=    11     8
 Precomputing XC quadrature grid using
 IXCGrd= 4 IRadAn=           5 IRanWt=          -1 IRanGd=           0 AccXCQ= 0.00D+00.
 Generated NRdTot=       0 NPtTot=           0 NUsed=           0 NTot=          32
 NSgBfM=    19    19    19    19    19 MxSgAt=     3 MxSgA2=     3.
 Leave Link  302 at Tue May 11 14:43:00 2021, MaxMem=   104857600 cpu:               4.2 elap:               0.2
 (Enter /data/apps/g16_2/l303.exe)
 DipDrv:  MaxL=1.
 Leave Link  303 at Tue May 11 14:43:00 2021, MaxMem=   104857600 cpu:               1.6 elap:               0.1
 (Enter /data/apps/g16_2/l401.exe)
 Initial guess from the checkpoint file:  "wat_opt.chk"
 B after Tr=     0.000000   -0.000000   -0.000000
         Rot=    0.500000   -0.500000   -0.500000   -0.500000 Ang=-120.00 deg.
 Guess basis will be translated and rotated to current coordinates.
 JPrj=2 DoOrth=T DoCkMO=T.
 Initial guess orbital symmetries:
       Occupied  (A) (A) (B) (A) (B)
       Virtual   (A) (B) (B) (A) (B) (A) (B) (A) (A) (A) (B) (A)
                 (B) (A)
 The electronic state of the initial guess is 1-A.
 Leave Link  401 at Tue May 11 14:43:00 2021, MaxMem=   104857600 cpu:               3.2 elap:               0.1
 (Enter /data/apps/g16_2/l502.exe)
 Keep R1 ints in memory in symmetry-blocked form, NReq=20729850.
 FoFCou: FMM=F IPFlag=           0 FMFlag=           0 FMFlg1=           0
         NFxFlg=           0 DoJE=F BraDBF=F KetDBF=F FulRan=T
         wScrn=  0.000000 ICntrl=       600 IOpCl=  0 I1Cent=           0 NGrid=           0
         NMat0=    1 NMatS0=    190 NMatT0=    0 NMatD0=    1 NMtDS0=    0 NMtDT0=    0
 Petite list used in FoFCou.
 Closed shell SCF:
 Using DIIS extrapolation, IDIIS=  1040.
 NGot=   104857600 LenX=   104845996 LenY=   104845114
 Requested convergence on RMS density matrix=1.00D-08 within 128 cycles.
 Requested convergence on MAX density matrix=1.00D-06.
 Requested convergence on             energy=1.00D-06.
 No special actions if energy rises.

 Cycle   1  Pass 1  IDiag  1:
 E= -76.4089494347282    
 DIIS: error= 4.61D-04 at cycle   1 NSaved=   1.
 NSaved= 1 IEnMin= 1 EnMin= -76.4089494347282     IErMin= 1 ErrMin= 4.61D-04
 ErrMax= 4.61D-04  0.00D+00 EMaxC= 1.00D-01 BMatC= 4.64D-06 BMatP= 4.64D-06
 IDIUse=3 WtCom= 9.95D-01 WtEn= 4.61D-03
 Coeff-Com:  0.100D+01
 Coeff-En:   0.100D+01
 Coeff:      0.100D+01
 Gap=     0.353 Goal=   None    Shift=    0.000
 RMSDP=1.31D-04 MaxDP=7.80D-04              OVMax= 1.14D-03

 Cycle   2  Pass 1  IDiag  1:
 E= -76.4089518616615     Delta-E=       -0.000002426933 Rises=F Damp=F
 DIIS: error= 4.32D-04 at cycle   2 NSaved=   2.
 NSaved= 2 IEnMin= 2 EnMin= -76.4089518616615     IErMin= 2 ErrMin= 4.32D-04
 ErrMax= 4.32D-04  0.00D+00 EMaxC= 1.00D-01 BMatC= 2.89D-06 BMatP= 4.64D-06
 IDIUse=3 WtCom= 9.96D-01 WtEn= 4.32D-03
 Coeff-Com:  0.425D+00 0.575D+00
 Coeff-En:   0.157D+00 0.843D+00
 Coeff:      0.424D+00 0.576D+00
 Gap=     0.354 Goal=   None    Shift=    0.000
 RMSDP=7.59D-05 MaxDP=5.20D-04 DE=-2.43D-06 OVMax= 5.22D-04

 Cycle   3  Pass 1  IDiag  1:
 E= -76.4089535581514     Delta-E=       -0.000001696490 Rises=F Damp=F
 DIIS: error= 1.49D-04 at cycle   3 NSaved=   3.
 NSaved= 3 IEnMin= 3 EnMin= -76.4089535581514     IErMin= 3 ErrMin= 1.49D-04
 ErrMax= 1.49D-04  0.00D+00 EMaxC= 1.00D-01 BMatC= 4.29D-07 BMatP= 2.89D-06
 IDIUse=3 WtCom= 9.99D-01 WtEn= 1.49D-03
 Coeff-Com:  0.434D-01 0.281D+00 0.675D+00
 Coeff-En:   0.000D+00 0.109D+00 0.891D+00
 Coeff:      0.434D-01 0.281D+00 0.675D+00
 Gap=     0.354 Goal=   None    Shift=    0.000
 RMSDP=2.46D-05 MaxDP=1.90D-04 DE=-1.70D-06 OVMax= 1.82D-04

 Cycle   4  Pass 1  IDiag  1:
 E= -76.4089538594323     Delta-E=       -0.000000301281 Rises=F Damp=F
 DIIS: error= 1.42D-05 at cycle   4 NSaved=   4.
 NSaved= 4 IEnMin= 4 EnMin= -76.4089538594323     IErMin= 4 ErrMin= 1.42D-05
 ErrMax= 1.42D-05  0.00D+00 EMaxC= 1.00D-01 BMatC= 3.70D-09 BMatP= 4.29D-07
 IDIUse=1 WtCom= 1.00D+00 WtEn= 0.00D+00
 Coeff-Com: -0.704D-02 0.341D-01 0.150D+00 0.822D+00
 Coeff:     -0.704D-02 0.341D-01 0.150D+00 0.822D+00
 Gap=     0.354 Goal=   None    Shift=    0.000
 RMSDP=2.12D-06 MaxDP=1.77D-05 DE=-3.01D-07 OVMax= 1.67D-05

 Cycle   5  Pass 1  IDiag  1:
 E= -76.4089538621927     Delta-E=       -0.000000002760 Rises=F Damp=F
 DIIS: error= 2.44D-07 at cycle   5 NSaved=   5.
 NSaved= 5 IEnMin= 5 EnMin= -76.4089538621927     IErMin= 5 ErrMin= 2.44D-07
 ErrMax= 2.44D-07  0.00D+00 EMaxC= 1.00D-01 BMatC= 9.79D-13 BMatP= 3.70D-09
 IDIUse=1 WtCom= 1.00D+00 WtEn= 0.00D+00
 Coeff-Com:  0.152D-03-0.205D-02-0.815D-02-0.314D-01 0.104D+01
 Coeff:      0.152D-03-0.205D-02-0.815D-02-0.314D-01 0.104D+01
 Gap=     0.354 Goal=   None    Shift=    0.000
 RMSDP=1.31D-07 MaxDP=9.93D-07 DE=-2.76D-09 OVMax= 1.23D-06

 Cycle   6  Pass 1  IDiag  1:
 E= -76.4089538621946     Delta-E=       -0.000000000002 Rises=F Damp=F
 DIIS: error= 5.13D-08 at cycle   6 NSaved=   6.
 NSaved= 6 IEnMin= 6 EnMin= -76.4089538621946     IErMin= 6 ErrMin= 5.13D-08
 ErrMax= 5.13D-08  0.00D+00 EMaxC= 1.00D-01 BMatC= 3.48D-14 BMatP= 9.79D-13
 IDIUse=1 WtCom= 1.00D+00 WtEn= 0.00D+00
 Coeff-Com:  0.159D-04-0.535D-04 0.589D-04-0.162D-02-0.591D-01 0.106D+01
 Coeff:      0.159D-04-0.535D-04 0.589D-04-0.162D-02-0.591D-01 0.106D+01
 Gap=     0.354 Goal=   None    Shift=    0.000
 RMSDP=9.52D-09 MaxDP=6.00D-08 DE=-1.88D-12 OVMax= 7.42D-08

 SCF Done:  E(RB3LYP) =  -76.4089538622     A.U. after    6 cycles
            NFock=  6  Conv=0.95D-08     -V/T= 2.0078
 KE= 7.582035015485D+01 PE=-1.987604430009D+02 EE= 3.744123363071D+01
 Leave Link  502 at Tue May 11 14:43:01 2021, MaxMem=   104857600 cpu:               5.6 elap:               0.3
 (Enter /data/apps/g16_2/l701.exe)
 ... and contract with generalized density number  0.
 Compute integral first derivatives.
 Leave Link  701 at Tue May 11 14:43:02 2021, MaxMem=   104857600 cpu:               6.8 elap:               0.3
 (Enter /data/apps/g16_2/l702.exe)
 L702 exits ... SP integral derivatives will be done elsewhere.
 Leave Link  702 at Tue May 11 14:43:02 2021, MaxMem=   104857600 cpu:               1.3 elap:               0.1
 (Enter /data/apps/g16_2/l703.exe)
 Integral derivatives from FoFJK, PRISM(SPDF).
 Compute integral first derivatives, UseDBF=F ICtDFT=           0.
 Calling FoFJK, ICntrl=      2127 FMM=F ISym2X=1 I1Cent= 0 IOpClX= 0 NMat=1 NMatS=1 NMatT=0.
 FoFJK:  IHMeth= 1 ICntrl=    2127 DoSepK=F KAlg= 0 I1Cent=           0 FoldK=F
 IRaf=         0 NMat=       1 IRICut=       1 DoRegI=T DoRafI=F ISym2E= 1 IDoP0=0 IntGTp=1.
 FoFCou: FMM=F IPFlag=           0 FMFlag=      100000 FMFlg1=         800
         NFxFlg=           0 DoJE=F BraDBF=F KetDBF=F FulRan=T
         wScrn=  0.000000 ICntrl=      2127 IOpCl=  0 I1Cent=           0 NGrid=           0
         NMat0=    1 NMatS0=      1 NMatT0=    0 NMatD0=    1 NMtDS0=    0 NMtDT0=    0
 Petite list used in FoFCou.
 Leave Link  703 at Tue May 11 14:43:03 2021, MaxMem=   104857600 cpu:               4.8 elap:               0.2
 (Enter /data/apps/g16_2/l716.exe)
 Dipole        =-3.57841971D-16 0.00000000D+00-8.24262278D-01
 ***** Axes restored to original set *****
 -------------------------------------------------------------------
 Center     Atomic                   Forces (Hartrees/Bohr)
 Number     Number              X              Y              Z
 -------------------------------------------------------------------
      1        8          -0.000177633   -0.000165699   -0.000188814
      2        1           0.000236796    0.000013830    0.000015760
      3        1          -0.000059163    0.000151868    0.000173054
 -------------------------------------------------------------------
 Cartesian Forces:  Max     0.000236796 RMS     0.000151908
 Leave Link  716 at Tue May 11 14:43:03 2021, MaxMem=   104857600 cpu:               1.5 elap:               0.1
 (Enter /data/apps/g16_2/l103.exe)

 GradGradGradGradGradGradGradGradGradGradGradGradGradGradGradGradGradGrad
 Berny optimization.
 Using GEDIIS/GDIIS optimizer.
 FormGI is forming the generalized inverse of G from B-inverse, IUseBI=4.
 Internal  Forces:  Max     0.000237554 RMS     0.000194192
 Search for a local minimum.
 Step number   3 out of a maximum of   20
 All quantities printed in internal units (Hartrees-Bohrs-Radians)
 RMS Force = .19419D-03 SwitMx=.10000D-02 MixMth= 2
 Mixed Optimization -- En-DIIS/RFO-DIIS
 Update second derivatives using D2CorX and points    1    2    3
 DE= -1.94D-05 DEPred=-1.85D-05 R= 1.05D+00
 TightC=F SS=  1.41D+00  RLast= 8.87D-03 DXNew= 5.4097D-01 2.6625D-02
 Trust test= 1.05D+00 RLast= 8.87D-03 DXMaxT set to 3.22D-01
 The second derivative matrix:
                          R1        R2        A1
           R1           0.52296
           R2          -0.01081   0.52296
           A1           0.03191   0.03191   0.17698
 ITU=  1  1  0
 Use linear search instead of GDIIS.
     Eigenvalues ---    0.17101   0.51812   0.53377
 RFO step:  Lambda=-7.74160336D-08 EMin= 1.71014191D-01
 Quartic linear search produced a step of  0.06770.
 Iteration  1 RMS(Cart)=  0.00029720 RMS(Int)=  0.00000004
 Iteration  2 RMS(Cart)=  0.00000005 RMS(Int)=  0.00000000
 ITry= 1 IFail=0 DXMaxC= 2.83D-04 DCOld= 1.00D+10 DXMaxT= 3.22D-01 DXLimC= 3.00D+00 Rises=F
 ClnCor:  largest displacement from symmetrization is 6.51D-10 for atom     3.
 Variable       Old X    -DE/DX   Delta X   Delta X   Delta X     New X
                                 (Linear)    (Quad)   (Total)
    R1        1.83016   0.00024   0.00034   0.00014   0.00048   1.83064
    R2        1.83016   0.00024   0.00034   0.00014   0.00048   1.83064
    A1        1.80932  -0.00002   0.00036  -0.00062  -0.00026   1.80906
         Item               Value     Threshold  Converged?
 Maximum Force            0.000238     0.000450     YES
 RMS     Force            0.000194     0.000300     YES
 Maximum Displacement     0.000283     0.001800     YES
 RMS     Displacement     0.000297     0.001200     YES
 Predicted change in Energy=-1.162886D-07
 Optimization completed.
    -- Stationary point found.
                           ----------------------------
                           !   Optimized Parameters   !
                           ! (Angstroms and Degrees)  !
 --------------------------                            --------------------------
 ! Name  Definition              Value          Derivative Info.                !
 --------------------------------------------------------------------------------
 ! R1    R(1,2)                  0.9685         -DE/DX =    0.0002              !
 ! R2    R(1,3)                  0.9685         -DE/DX =    0.0002              !
 ! A1    A(2,1,3)              103.6662         -DE/DX =    0.0                 !
 --------------------------------------------------------------------------------
 Lowest energy point so far.  Saving SCF results.
 Largest change from initial coordinates is atom    2       0.977 Angstoms.
 GradGradGradGradGradGradGradGradGradGradGradGradGradGradGradGradGradGrad

 Leave Link  103 at Tue May 11 14:43:03 2021, MaxMem=   104857600 cpu:               1.0 elap:               0.1
 (Enter /data/apps/g16_2/l202.exe)
                          Input orientation:                          
 ---------------------------------------------------------------------
 Center     Atomic      Atomic             Coordinates (Angstroms)
 Number     Number       Type             X           Y           Z
 ---------------------------------------------------------------------
      1          8           0        0.172483    2.107346   -0.015729
      2          1           0        1.139719    2.139693    0.021130
      3          1           0       -0.103692    2.719631    0.681970
 ---------------------------------------------------------------------
                    Distance matrix (angstroms):
                    1          2          3
     1  O    0.000000
     2  H    0.968478   0.000000
     3  H    0.968478   1.522862   0.000000
 Stoichiometry    H2O
 Framework group  C2V[C2(O),SGV(H2)]
 Deg. of freedom     2
 Full point group                 C2V     NOp   4
 Omega: Change in point group or standard orientation.

 Old FWG=C02  [C2(O1),X(H2)]
 New FWG=C02V [C2(O1),SGV(H2)]
 RotChk:  IX=0 Diff= 1.33D-15
 Largest Abelian subgroup         C2V     NOp   4
 Largest concise Abelian subgroup C2      NOp   2
                         Standard orientation:                         
 ---------------------------------------------------------------------
 Center     Atomic      Atomic             Coordinates (Angstroms)
 Number     Number       Type             X           Y           Z
 ---------------------------------------------------------------------
      1          8           0        0.000000    0.000000    0.119695
      2          1           0        0.000000    0.761431   -0.478780
      3          1           0       -0.000000   -0.761431   -0.478780
 ---------------------------------------------------------------------
 Rotational constants (GHZ):         788.2354558         432.4550742         279.2488466
 Leave Link  202 at Tue May 11 14:43:04 2021, MaxMem=   104857600 cpu:               0.7 elap:               0.0
 (Enter /data/apps/g16_2/l601.exe)
 Copying SCF densities to generalized density rwf, IOpCl= 0 IROHF=0.
 SCF density gives NOpUse=  1 NOpAll=  4.
 Marking SCF density as not fully symmetric.

 **********************************************************************

            Population analysis using the SCF Density.

 **********************************************************************

 Orbital symmetries:
       Occupied  (A1) (A1) (B2) (A1) (B1)
       Virtual   (A1) (B2) (B2) (A1) (B1) (A1) (B2) (A1) (A1) (A2)
                 (B1) (A1) (B2) (A1)
 The electronic state is 1-A1.
 Alpha  occ. eigenvalues --  -19.13812  -0.99797  -0.51725  -0.37220  -0.29120
 Alpha virt. eigenvalues --    0.06267   0.14821   0.77262   0.86113   0.89078
 Alpha virt. eigenvalues --    0.89511   1.06586   1.19342   1.72909   1.74631
 Alpha virt. eigenvalues --    1.77979   2.28087   2.57755   3.55205
          Condensed to atoms (all electrons):
               1          2          3
     1  O    8.289093   0.242655   0.242655
     2  H    0.242655   0.393560  -0.023418
     3  H    0.242655  -0.023418   0.393560
 Mulliken charges:
               1
     1  O   -0.774404
     2  H    0.387202
     3  H    0.387202
 Sum of Mulliken charges =  -0.00000
 Mulliken charges with hydrogens summed into heavy atoms:
               1
     1  O   -0.000000
 Electronic spatial extent (au):  <R**2>=             19.1830
 Charge=              0.0000 electrons
 Dipole moment (field-independent basis, Debye):
    X=             -0.0000    Y=             -0.0000    Z=             -2.0951  Tot=              2.0951
 Quadrupole moment (field-independent basis, Debye-Ang):
   XX=             -7.2034   YY=             -4.2862   ZZ=             -5.9900
   XY=              0.0000   XZ=             -0.0000   YZ=             -0.0000
 Traceless Quadrupole moment (field-independent basis, Debye-Ang):
   XX=             -1.3768   YY=              1.5403   ZZ=             -0.1635
   XY=              0.0000   XZ=             -0.0000   YZ=             -0.0000
 Octapole moment (field-independent basis, Debye-Ang**2):
  XXX=             -0.0000  YYY=              0.0000  ZZZ=             -1.2172  XYY=             -0.0000
  XXY=             -0.0000  XXZ=             -0.3237  XZZ=             -0.0000  YZZ=              0.0000
  YYZ=             -1.2124  XYZ=             -0.0000
 Hexadecapole moment (field-independent basis, Debye-Ang**3):
 XXXX=             -5.2137 YYYY=             -6.0584 ZZZZ=             -6.2927 XXXY=              0.0000
 XXXZ=             -0.0000 YYYX=              0.0000 YYYZ=             -0.0000 ZZZX=             -0.0000
 ZZZY=             -0.0000 XXYY=             -2.1167 XXZZ=             -1.9675 YYZZ=             -1.7413
 XXYZ=             -0.0000 YYXZ=             -0.0000 ZZXY=              0.0000
 N-N= 9.089905353173D+00 E-N=-1.987604439904D+02  KE= 7.582035015485D+01
 Symmetry A    KE= 6.765959340461D+01
 Symmetry B    KE= 8.160756750242D+00
 No NMR shielding tensors so no spin-rotation constants.
 Leave Link  601 at Tue May 11 14:43:04 2021, MaxMem=   104857600 cpu:               3.6 elap:               0.2
 (Enter /data/apps/g16_2/l9999.exe)
 1\1\GINC-NODE3\FOpt\RB3LYP\6-31G(d)\H2O1\MDABRAMO\11-May-2021\0\\#P B3
 LYP/6-31G(d) Opt\\Opt water test py\\0,1\O,0.1724834467,2.1073463711,-
 0.0157292537\H,1.1397187494,2.1396928294,0.021129579\H,-0.1036921834,2
 .7196308006,0.6819696759\\Version=ES64L-G16RevB.01\State=1-A1\HF=-76.4
 089539\RMSD=9.523e-09\RMSF=1.519e-04\Dipole=0.4758885,0.443916,0.50584
 29\Quadrupole=0.722939,-0.447454,-0.2754851,-0.3938771,-0.4488235,0.65
 6559\PG=C02V [C2(O1),SGV(H2)]\\@


 GROWING OLD ISN'T SO BAD -- WHEN YOU CONSIDER THE ALTERNATIVE.

                     -- MAURICE CHEVALIER
 Job cpu time:       0 days  0 hours  2 minutes 21.9 seconds.
 Elapsed time:       0 days  0 hours  0 minutes  8.1 seconds.
 File lengths (MBytes):  RWF=     17 Int=      0 D2E=      0 Chk=      2 Scr=      2
 Normal termination of Gaussian 16 at Tue May 11 14:43:07 2021.
