 Entering Gaussian System, Link 0=/data/apps/g16_2/g16
 Input=thio_pbe0_esp2_x180.com
 Output=thio_pbe0_esp2_x180.log
 Initial command:
 /data/apps/g16_2/l1.exe "/data/home/mdabramo/giuseppe/photoswitch/thioindigo/thio_pbe0_esp/Gau-17337.inp" -scrdir="/data/home/mdabramo/giuseppe/photoswitch/thioindigo/thio_pbe0_esp/"
 Entering Link 1 = /data/apps/g16_2/l1.exe PID=     17339.
  
 Copyright (c) 1988-2017, Gaussian, Inc.  All Rights Reserved.
  
 This is part of the Gaussian(R) 16 program.  It is based on
 the Gaussian(R) 09 system (copyright 2009, Gaussian, Inc.),
 the Gaussian(R) 03 system (copyright 2003, Gaussian, Inc.),
 the Gaussian(R) 98 system (copyright 1998, Gaussian, Inc.),
 the Gaussian(R) 94 system (copyright 1995, Gaussian, Inc.),
 the Gaussian 92(TM) system (copyright 1992, Gaussian, Inc.),
 the Gaussian 90(TM) system (copyright 1990, Gaussian, Inc.),
 the Gaussian 88(TM) system (copyright 1988, Gaussian, Inc.),
 the Gaussian 86(TM) system (copyright 1986, Carnegie Mellon
 University), and the Gaussian 82(TM) system (copyright 1983,
 Carnegie Mellon University). Gaussian is a federally registered
 trademark of Gaussian, Inc.
  
 This software contains proprietary and confidential information,
 including trade secrets, belonging to Gaussian, Inc.
  
 This software is provided under written license and may be
 used, copied, transmitted, or stored only in accord with that
 written license.
  
 The following legend is applicable only to US Government
 contracts under FAR:
  
                    RESTRICTED RIGHTS LEGEND
  
 Use, reproduction and disclosure by the US Government is
 subject to restrictions as set forth in subparagraphs (a)
 and (c) of the Commercial Computer Software - Restricted
 Rights clause in FAR 52.227-19.
  
 Gaussian, Inc.
 340 Quinnipiac St., Bldg. 40, Wallingford CT 06492
  
  
 ---------------------------------------------------------------
 Warning -- This program may not be used in any manner that
 competes with the business of Gaussian, Inc. or will provide
 assistance to any competitor of Gaussian, Inc.  The licensee
 of this program is prohibited from giving any competitor of
 Gaussian, Inc. access to this program.  By using this program,
 the user acknowledges that Gaussian, Inc. is engaged in the
 business of creating and licensing software in the field of
 computational chemistry and represents and warrants to the
 licensee that it is not a competitor of Gaussian, Inc. and that
 it will not use this program in any manner prohibited above.
 ---------------------------------------------------------------
  

 Cite this work as:
 Gaussian 16, Revision B.01,
 M. J. Frisch, G. W. Trucks, H. B. Schlegel, G. E. Scuseria, 
 M. A. Robb, J. R. Cheeseman, G. Scalmani, V. Barone, 
 G. A. Petersson, H. Nakatsuji, X. Li, M. Caricato, A. V. Marenich, 
 J. Bloino, B. G. Janesko, R. Gomperts, B. Mennucci, H. P. Hratchian, 
 J. V. Ortiz, A. F. Izmaylov, J. L. Sonnenberg, D. Williams-Young, 
 F. Ding, F. Lipparini, F. Egidi, J. Goings, B. Peng, A. Petrone, 
 T. Henderson, D. Ranasinghe, V. G. Zakrzewski, J. Gao, N. Rega, 
 G. Zheng, W. Liang, M. Hada, M. Ehara, K. Toyota, R. Fukuda, 
 J. Hasegawa, M. Ishida, T. Nakajima, Y. Honda, O. Kitao, H. Nakai, 
 T. Vreven, K. Throssell, J. A. Montgomery, Jr., J. E. Peralta, 
 F. Ogliaro, M. J. Bearpark, J. J. Heyd, E. N. Brothers, K. N. Kudin, 
 V. N. Staroverov, T. A. Keith, R. Kobayashi, J. Normand, 
 K. Raghavachari, A. P. Rendell, J. C. Burant, S. S. Iyengar, 
 J. Tomasi, M. Cossi, J. M. Millam, M. Klene, C. Adamo, R. Cammi, 
 J. W. Ochterski, R. L. Martin, K. Morokuma, O. Farkas, 
 J. B. Foresman, and D. J. Fox, Gaussian, Inc., Wallingford CT, 2016.
 
 ******************************************
 Gaussian 16:  ES64L-G16RevB.01 20-Dec-2017
                 6-Apr-2021 
 ******************************************
 %NProcShared=12
 Will use up to   12 processors via shared memory.
 %mem=10GB
 %Chk=thio_pbe0_espx_x180.chk
 ----------------------------------------------------------------------
 #P pbe1pbe/6-311++G** Guess=Read TD=(Read,NStates=15,Root=2) Pop=(MK,d
 ipole) Density=Current
 ----------------------------------------------------------------------
 1/30=1,38=1,172=1/1;
 2/12=2,17=6,18=5,40=1/2;
 3/5=4,6=6,7=1111,11=9,25=1,30=1,71=1,74=-13,116=-2/1,2,3,8;
 4/5=1/1;
 5/5=2,38=6/2;
 8/6=1,10=2,107=2,108=15/1;
 9/8=2,15=1,41=15,42=1,49=3,70=2/14;
 10/5=4,13=10,28=2/2;
 6/7=2,8=2,9=2,10=2,15=24,20=1,22=-1/1,2;
 99/5=1,9=1/99;
 Leave Link    1 at Tue Apr  6 00:04:11 2021, MaxMem=  1342177280 cpu:               1.6 elap:               0.2
 (Enter /data/apps/g16_2/l101.exe)
 ----------
 thioindigo
 ----------
 Symbolic Z-matrix:
 Charge =  0 Multiplicity = 1
 H                    -6.44006  -1.03941   0.00063 
 C                    -5.46144  -0.56863   0.0004 
 C                    -5.36888   0.82566   0.00027 
 H                    -6.27247   1.42625   0.00038 
 C                    -4.12463   1.43704  -0.00001 
 H                    -4.01936   2.51765  -0.00013 
 C                    -2.98287   0.64068  -0.00017 
 C                    -3.08258  -0.7509   -0.00002 
 C                    -4.32544  -1.37105   0.00026 
 H                    -4.41254  -2.453     0.00038 
 S                    -1.52455  -1.59385  -0.00019 
 C                    -0.67291  -0.06867  -0.00023 
 C                    -1.59382   1.10474  -0.00052 
 O                    -1.19412   2.25274  -0.00035 
 C                     0.67291   0.06867  -0.00009 
 C                     1.59382  -1.10474   0.00017 
 O                     1.19412  -2.25274   0.00023 
 C                     2.98287  -0.64068   0.00015 
 C                     4.12463  -1.43704   0.00027 
 H                     4.01936  -2.51765   0.00039 
 C                     5.36888  -0.82566   0.00024 
 H                     6.27247  -1.42625   0.00033 
 C                     5.46144   0.56863   0.00009 
 H                     6.44006   1.03941   0.00006 
 C                     4.32544   1.37105  -0.00004 
 H                     4.41254   2.453    -0.00016 
 C                     3.08258   0.7509   -0.00001 
 S                     1.52455   1.59385  -0.00015 
 
 ITRead=  0  0  0  0  0  0  0  0  0  0  0  0  0  0  0  0  0  0  0  0
 ITRead=  0  0  0  0  0  0  0  0
 MicOpt= -1 -1 -1 -1 -1 -1 -1 -1 -1 -1 -1 -1 -1 -1 -1 -1 -1 -1 -1 -1
 MicOpt= -1 -1 -1 -1 -1 -1 -1 -1
 NAtoms=     28 NQM=       28 NQMF=       0 NMMI=      0 NMMIF=      0
                NMic=       0 NMicF=      0.
                    Isotopes and Nuclear Properties:
 (Nuclear quadrupole moments (NQMom) in fm**2, nuclear magnetic moments (NMagM)
  in nuclear magnetons)

  Atom         1           2           3           4           5           6           7           8           9          10
 IAtWgt=           1          12          12           1          12           1          12          12          12           1
 AtmWgt=   1.0078250  12.0000000  12.0000000   1.0078250  12.0000000   1.0078250  12.0000000  12.0000000  12.0000000   1.0078250
 NucSpn=           1           0           0           1           0           1           0           0           0           1
 AtZEff=  -0.0000000  -0.0000000  -0.0000000  -0.0000000  -0.0000000  -0.0000000  -0.0000000  -0.0000000  -0.0000000  -0.0000000
 NQMom=    0.0000000   0.0000000   0.0000000   0.0000000   0.0000000   0.0000000   0.0000000   0.0000000   0.0000000   0.0000000
 NMagM=    2.7928460   0.0000000   0.0000000   2.7928460   0.0000000   2.7928460   0.0000000   0.0000000   0.0000000   2.7928460
 AtZNuc=   1.0000000   6.0000000   6.0000000   1.0000000   6.0000000   1.0000000   6.0000000   6.0000000   6.0000000   1.0000000

  Atom        11          12          13          14          15          16          17          18          19          20
 IAtWgt=          32          12          12          16          12          12          16          12          12           1
 AtmWgt=  31.9720718  12.0000000  12.0000000  15.9949146  12.0000000  12.0000000  15.9949146  12.0000000  12.0000000   1.0078250
 NucSpn=           0           0           0           0           0           0           0           0           0           1
 AtZEff=  -0.0000000  -0.0000000  -0.0000000  -0.0000000  -0.0000000  -0.0000000  -0.0000000  -0.0000000  -0.0000000  -0.0000000
 NQMom=    0.0000000   0.0000000   0.0000000   0.0000000   0.0000000   0.0000000   0.0000000   0.0000000   0.0000000   0.0000000
 NMagM=    0.0000000   0.0000000   0.0000000   0.0000000   0.0000000   0.0000000   0.0000000   0.0000000   0.0000000   2.7928460
 AtZNuc=  16.0000000   6.0000000   6.0000000   8.0000000   6.0000000   6.0000000   8.0000000   6.0000000   6.0000000   1.0000000

  Atom        21          22          23          24          25          26          27          28
 IAtWgt=          12           1          12           1          12           1          12          32
 AtmWgt=  12.0000000   1.0078250  12.0000000   1.0078250  12.0000000   1.0078250  12.0000000  31.9720718
 NucSpn=           0           1           0           1           0           1           0           0
 AtZEff=  -0.0000000  -0.0000000  -0.0000000  -0.0000000  -0.0000000  -0.0000000  -0.0000000  -0.0000000
 NQMom=    0.0000000   0.0000000   0.0000000   0.0000000   0.0000000   0.0000000   0.0000000   0.0000000
 NMagM=    0.0000000   2.7928460   0.0000000   2.7928460   0.0000000   2.7928460   0.0000000   0.0000000
 AtZNuc=   6.0000000   1.0000000   6.0000000   1.0000000   6.0000000   1.0000000   6.0000000  16.0000000
 Leave Link  101 at Tue Apr  6 00:04:12 2021, MaxMem=  1342177280 cpu:               3.0 elap:               0.3
 (Enter /data/apps/g16_2/l202.exe)
                          Input orientation:                          
 ---------------------------------------------------------------------
 Center     Atomic      Atomic             Coordinates (Angstroms)
 Number     Number       Type             X           Y           Z
 ---------------------------------------------------------------------
      1          1           0       -6.440064   -1.039412    0.000626
      2          6           0       -5.461440   -0.568628    0.000403
      3          6           0       -5.368879    0.825655    0.000270
      4          1           0       -6.272466    1.426251    0.000384
      5          6           0       -4.124627    1.437039   -0.000011
      6          1           0       -4.019357    2.517646   -0.000130
      7          6           0       -2.982873    0.640682   -0.000172
      8          6           0       -3.082578   -0.750904   -0.000020
      9          6           0       -4.325436   -1.371045    0.000263
     10          1           0       -4.412543   -2.453001    0.000380
     11         16           0       -1.524547   -1.593851   -0.000193
     12          6           0       -0.672908   -0.068670   -0.000231
     13          6           0       -1.593823    1.104736   -0.000518
     14          8           0       -1.194117    2.252742   -0.000351
     15          6           0        0.672907    0.068670   -0.000090
     16          6           0        1.593823   -1.104736    0.000168
     17          8           0        1.194117   -2.252742    0.000234
     18          6           0        2.982873   -0.640682    0.000145
     19          6           0        4.124627   -1.437039    0.000266
     20          1           0        4.019358   -2.517646    0.000385
     21          6           0        5.368879   -0.825655    0.000236
     22          1           0        6.272466   -1.426251    0.000332
     23          6           0        5.461440    0.568628    0.000085
     24          1           0        6.440064    1.039413    0.000063
     25          6           0        4.325436    1.371045   -0.000038
     26          1           0        4.412542    2.453001   -0.000155
     27          6           0        3.082578    0.750904   -0.000007
     28         16           0        1.524547    1.593851   -0.000147
 ---------------------------------------------------------------------
                    Distance matrix (angstroms):
                    1          2          3          4          5
     1  H    0.000000
     2  C    1.085975   0.000000
     3  C    2.150793   1.397352   0.000000
     4  H    2.471352   2.153440   1.084982   0.000000
     5  C    3.390289   2.410346   1.386345   2.147866   0.000000
     6  H    4.302614   3.406566   2.164265   2.503526   1.085722
     7  C    3.843811   2.757848   2.393165   3.382091   1.392044
     8  C    3.369859   2.385835   2.777177   3.862045   2.423419
     9  C    2.140475   1.390819   2.431926   3.408195   2.815255
    10  H    2.471654   2.156629   3.415284   4.302082   3.900680
    11  S    4.946687   4.068195   4.542345   5.627055   3.993333
    12  C    5.848284   4.814561   4.780372   5.795674   3.765836
    13  C    5.299380   4.214096   3.785358   4.689677   2.552527
    14  O    6.193403   5.115679   4.411940   5.145164   3.041917
    15  C    7.198764   6.167363   6.089023   7.076809   4.988864
    16  C    8.034153   7.075602   7.225346   8.263437   6.257898
    17  O    7.729999   6.865324   7.249100   8.323752   6.473293
    18  C    9.431369   8.444620   8.479499   9.483328   7.404963
    19  C   10.572171   9.625322   9.759428  10.784154   8.735589
    20  H   10.563365   9.679060   9.965774  11.021614   9.053399
    21  C   11.810877  10.833368  10.863990  11.857149   9.759428
    22  H   12.718414  11.765206  11.857149  12.865150  10.784154
    23  C   12.009646  10.981924  10.833368  11.765206   9.625322
    24  H   13.046808  12.009646  11.810877  12.718414  10.572171
    25  C   11.032058   9.977238   9.709644  10.598046   8.450321
    26  H   11.400702  10.325975   9.915869  10.734226   8.597409
    27  C    9.689476   8.645311   8.451788   9.379389   7.239792
    28  S    8.388629   7.313025   6.936097   7.798814   5.651350
                    6          7          8          9         10
     6  H    0.000000
     7  C    2.144130   0.000000
     8  C    3.400143   1.395153   0.000000
     9  C    3.900718   2.418578   1.388982   0.000000
    10  H    4.986174   3.408054   2.160079   1.085457   0.000000
    11  S    4.809208   2.668305   1.771446   2.809737   3.013081
    12  C    4.229391   2.416427   2.504387   3.877775   4.435077
    13  C    2.807050   1.464516   2.379032   3.686625   4.539017
    14  O    2.837632   2.407984   3.547982   4.789258   5.701077
    15  C    5.292903   3.700260   3.843874   5.201559   5.676322
    16  C    6.680527   4.898227   4.689768   5.925247   6.155831
    17  O    7.066605   5.081255   4.532730   5.589531   5.610235
    18  C    7.681553   6.101805   6.066452   7.344713   7.614242
    19  C    9.053398   7.404963   7.239792   8.450321   8.597410
    20  H    9.485521   7.681554   7.318393   8.423199   8.432149
    21  C    9.965773   8.479499   8.451788   9.709644   9.915870
    22  H   11.021613   9.483328   9.379389  10.598046  10.734227
    23  C    9.679059   8.444620   8.645311   9.977238  10.325976
    24  H   10.563364   9.431369   9.689476  11.032058  11.400703
    25  C    8.423198   7.344713   7.705929   9.075056   9.538113
    26  H    8.432147   7.614241   8.151186   9.538112  10.097078
    27  C    7.318392   6.066452   6.345437   7.705929   8.151187
    28  S    5.620344   4.607100   5.169475   6.558423   7.185127
                   11         12         13         14         15
    11  S    0.000000
    12  C    1.746845   0.000000
    13  C    2.699476   1.491632   0.000000
    14  O    3.860759   2.379204   1.215600   0.000000
    15  C    2.755500   1.352805   2.492288   2.873317   0.000000
    16  C    3.156496   2.492289   3.878512   4.364088   1.491633
    17  O    2.797369   2.873317   4.364089   5.099318   2.379204
    18  C    4.607100   3.700261   4.898227   5.081255   2.416428
    19  C    5.651350   4.988865   6.257898   6.473293   3.765837
    20  H    5.620345   5.292905   6.680528   7.066606   4.229393
    21  C    6.936097   6.089024   7.225346   7.249100   4.780373
    22  H    7.798814   7.076810   8.263437   8.323752   5.795675
    23  C    7.313025   6.167364   7.075602   6.865324   4.814562
    24  H    8.388630   7.198765   8.034153   7.729999   5.848285
    25  C    6.558423   5.201560   5.925247   5.589531   3.877776
    26  H    7.185126   5.676322   6.155830   5.610234   4.435077
    27  C    5.169475   3.843875   4.689768   4.532730   2.504388
    28  S    4.411170   2.755501   3.156496   2.797369   1.746845
                   16         17         18         19         20
    16  C    0.000000
    17  O    1.215600   0.000000
    18  C    1.464516   2.407984   0.000000
    19  C    2.552527   3.041917   1.392044   0.000000
    20  H    2.807051   2.837633   2.144130   1.085722   0.000000
    21  C    3.785358   4.411940   2.393165   1.386345   2.164264
    22  H    4.689677   5.145164   3.382091   2.147866   2.503525
    23  C    4.214096   5.115679   2.757848   2.410346   3.406565
    24  H    5.299380   6.193403   3.843812   3.390290   4.302614
    25  C    3.686625   4.789258   2.418578   2.815255   3.900718
    26  H    4.539016   5.701077   3.408053   3.900680   4.986173
    27  C    2.379032   3.547982   1.395153   2.423419   3.400144
    28  S    2.699476   3.860759   2.668305   3.993333   4.809209
                   21         22         23         24         25
    21  C    0.000000
    22  H    1.084982   0.000000
    23  C    1.397352   2.153440   0.000000
    24  H    2.150794   2.471354   1.085976   0.000000
    25  C    2.431926   3.408195   1.390819   2.140475   0.000000
    26  H    3.415284   4.302082   2.156629   2.471655   1.085457
    27  C    2.777177   3.862045   2.385835   3.369859   1.388982
    28  S    4.542345   5.627055   4.068195   4.946687   2.809737
                   26         27         28
    26  H    0.000000
    27  C    2.160078   0.000000
    28  S    3.013080   1.771446   0.000000
 Stoichiometry    C16H8O2S2
 Framework group  C1[X(C16H8O2S2)]
 Deg. of freedom    78
 Full point group                 C1      NOp   1
 Largest Abelian subgroup         C1      NOp   1
 Largest concise Abelian subgroup C1      NOp   1
                         Standard orientation:                         
 ---------------------------------------------------------------------
 Center     Atomic      Atomic             Coordinates (Angstroms)
 Number     Number       Type             X           Y           Z
 ---------------------------------------------------------------------
      1          1           0        6.440064    1.039412    0.000626
      2          6           0        5.461440    0.568628    0.000403
      3          6           0        5.368879   -0.825655    0.000270
      4          1           0        6.272466   -1.426251    0.000384
      5          6           0        4.124627   -1.437039   -0.000011
      6          1           0        4.019357   -2.517646   -0.000130
      7          6           0        2.982873   -0.640682   -0.000172
      8          6           0        3.082578    0.750904   -0.000020
      9          6           0        4.325436    1.371045    0.000263
     10          1           0        4.412543    2.453001    0.000380
     11         16           0        1.524547    1.593851   -0.000193
     12          6           0        0.672908    0.068670   -0.000231
     13          6           0        1.593823   -1.104736   -0.000518
     14          8           0        1.194117   -2.252742   -0.000351
     15          6           0       -0.672907   -0.068670   -0.000090
     16          6           0       -1.593823    1.104736    0.000168
     17          8           0       -1.194117    2.252742    0.000234
     18          6           0       -2.982873    0.640682    0.000145
     19          6           0       -4.124627    1.437039    0.000266
     20          1           0       -4.019358    2.517646    0.000385
     21          6           0       -5.368879    0.825655    0.000236
     22          1           0       -6.272466    1.426251    0.000332
     23          6           0       -5.461440   -0.568628    0.000085
     24          1           0       -6.440064   -1.039413    0.000063
     25          6           0       -4.325436   -1.371045   -0.000038
     26          1           0       -4.412542   -2.453001   -0.000155
     27          6           0       -3.082578   -0.750904   -0.000007
     28         16           0       -1.524547   -1.593851   -0.000147
 ---------------------------------------------------------------------
 Rotational constants (GHZ):           0.9579751           0.1575686           0.1353123
 Leave Link  202 at Tue Apr  6 00:04:12 2021, MaxMem=  1342177280 cpu:               0.0 elap:               0.0
 (Enter /data/apps/g16_2/l301.exe)
 Standard basis: 6-311++G(d,p) (5D, 7F)
 Ernie: Thresh=  0.10000D-02 Tol=  0.10000D-05 Strict=F.
 There are   532 symmetry adapted cartesian basis functions of A   symmetry.
 There are   512 symmetry adapted basis functions of A   symmetry.
   512 basis functions,   820 primitive gaussians,   532 cartesian basis functions
    76 alpha electrons       76 beta electrons
       nuclear repulsion energy      1648.7286289211 Hartrees.
 IExCor= 1009 DFT=T Ex+Corr=PBE1PBE ExCW=0 ScaHFX=  0.250000
 ScaDFX=  0.750000  0.750000  1.000000  1.000000 ScalE2=  1.000000  1.000000
 IRadAn=      5 IRanWt=     -1 IRanGd=            0 ICorTp=0 IEmpDi=  4
 No data on chk file.
 Error termination via Lnk1e in /data/apps/g16_2/l301.exe at Tue Apr  6 00:04:12 2021.
 Job cpu time:       0 days  0 hours  0 minutes  5.5 seconds.
 Elapsed time:       0 days  0 hours  0 minutes  0.5 seconds.
 File lengths (MBytes):  RWF=      5 Int=      0 D2E=      0 Chk=      1 Scr=      1
