 Entering Gaussian System, Link 0=/data/apps/g16_2/g16
 Input=thio_pbe0_esp0_x180.com
 Output=thio_pbe0_esp0_x180.log
 Initial command:
 /data/apps/g16_2/l1.exe "/data/home/mdabramo/giuseppe/photoswitch/thioindigo/thio_pbe0_esp/Gau-40726.inp" -scrdir="/data/home/mdabramo/giuseppe/photoswitch/thioindigo/thio_pbe0_esp/"
 Entering Link 1 = /data/apps/g16_2/l1.exe PID=     40728.
  
 Copyright (c) 1988-2017, Gaussian, Inc.  All Rights Reserved.
  
 This is part of the Gaussian(R) 16 program.  It is based on
 the Gaussian(R) 09 system (copyright 2009, Gaussian, Inc.),
 the Gaussian(R) 03 system (copyright 2003, Gaussian, Inc.),
 the Gaussian(R) 98 system (copyright 1998, Gaussian, Inc.),
 the Gaussian(R) 94 system (copyright 1995, Gaussian, Inc.),
 the Gaussian 92(TM) system (copyright 1992, Gaussian, Inc.),
 the Gaussian 90(TM) system (copyright 1990, Gaussian, Inc.),
 the Gaussian 88(TM) system (copyright 1988, Gaussian, Inc.),
 the Gaussian 86(TM) system (copyright 1986, Carnegie Mellon
 University), and the Gaussian 82(TM) system (copyright 1983,
 Carnegie Mellon University). Gaussian is a federally registered
 trademark of Gaussian, Inc.
  
 This software contains proprietary and confidential information,
 including trade secrets, belonging to Gaussian, Inc.
  
 This software is provided under written license and may be
 used, copied, transmitted, or stored only in accord with that
 written license.
  
 The following legend is applicable only to US Government
 contracts under FAR:
  
                    RESTRICTED RIGHTS LEGEND
  
 Use, reproduction and disclosure by the US Government is
 subject to restrictions as set forth in subparagraphs (a)
 and (c) of the Commercial Computer Software - Restricted
 Rights clause in FAR 52.227-19.
  
 Gaussian, Inc.
 340 Quinnipiac St., Bldg. 40, Wallingford CT 06492
  
  
 ---------------------------------------------------------------
 Warning -- This program may not be used in any manner that
 competes with the business of Gaussian, Inc. or will provide
 assistance to any competitor of Gaussian, Inc.  The licensee
 of this program is prohibited from giving any competitor of
 Gaussian, Inc. access to this program.  By using this program,
 the user acknowledges that Gaussian, Inc. is engaged in the
 business of creating and licensing software in the field of
 computational chemistry and represents and warrants to the
 licensee that it is not a competitor of Gaussian, Inc. and that
 it will not use this program in any manner prohibited above.
 ---------------------------------------------------------------
  

 Cite this work as:
 Gaussian 16, Revision B.01,
 M. J. Frisch, G. W. Trucks, H. B. Schlegel, G. E. Scuseria, 
 M. A. Robb, J. R. Cheeseman, G. Scalmani, V. Barone, 
 G. A. Petersson, H. Nakatsuji, X. Li, M. Caricato, A. V. Marenich, 
 J. Bloino, B. G. Janesko, R. Gomperts, B. Mennucci, H. P. Hratchian, 
 J. V. Ortiz, A. F. Izmaylov, J. L. Sonnenberg, D. Williams-Young, 
 F. Ding, F. Lipparini, F. Egidi, J. Goings, B. Peng, A. Petrone, 
 T. Henderson, D. Ranasinghe, V. G. Zakrzewski, J. Gao, N. Rega, 
 G. Zheng, W. Liang, M. Hada, M. Ehara, K. Toyota, R. Fukuda, 
 J. Hasegawa, M. Ishida, T. Nakajima, Y. Honda, O. Kitao, H. Nakai, 
 T. Vreven, K. Throssell, J. A. Montgomery, Jr., J. E. Peralta, 
 F. Ogliaro, M. J. Bearpark, J. J. Heyd, E. N. Brothers, K. N. Kudin, 
 V. N. Staroverov, T. A. Keith, R. Kobayashi, J. Normand, 
 K. Raghavachari, A. P. Rendell, J. C. Burant, S. S. Iyengar, 
 J. Tomasi, M. Cossi, J. M. Millam, M. Klene, C. Adamo, R. Cammi, 
 J. W. Ochterski, R. L. Martin, K. Morokuma, O. Farkas, 
 J. B. Foresman, and D. J. Fox, Gaussian, Inc., Wallingford CT, 2016.
 
 ******************************************
 Gaussian 16:  ES64L-G16RevB.01 20-Dec-2017
                 5-Apr-2021 
 ******************************************
 %NProcShared=12
 Will use up to   12 processors via shared memory.
 %mem=10GB
 %Chk=thio_pbe0_esp0_x180.chk
 -----------------------------------------------------
 #P pbe1pbe/6-311++G** Pop=(MK,dipole) Density=Current
 -----------------------------------------------------
 1/30=1,38=1,172=1/1;
 2/12=2,17=6,18=5,40=1/2;
 3/5=4,6=6,7=1111,11=2,25=1,30=1,74=-13/1,2,3;
 4//1;
 5/5=2,38=5/2;
 6/7=2,8=2,9=2,10=2,15=24,20=1,22=-1,28=1/1,2;
 99/5=1,9=1/99;
 Leave Link    1 at Mon Apr  5 17:29:50 2021, MaxMem=  1342177280 cpu:               1.6 elap:               0.2
 (Enter /data/apps/g16_2/l101.exe)
 ----------
 thioindigo
 ----------
 Symbolic Z-matrix:
 Charge =  0 Multiplicity = 1
 H                    -6.44006  -1.03941   0.00063 
 C                    -5.46144  -0.56863   0.0004 
 C                    -5.36888   0.82566   0.00027 
 H                    -6.27247   1.42625   0.00038 
 C                    -4.12463   1.43704  -0.00001 
 H                    -4.01936   2.51765  -0.00013 
 C                    -2.98287   0.64068  -0.00017 
 C                    -3.08258  -0.7509   -0.00002 
 C                    -4.32544  -1.37105   0.00026 
 H                    -4.41254  -2.453     0.00038 
 S                    -1.52455  -1.59385  -0.00019 
 C                    -0.67291  -0.06867  -0.00023 
 C                    -1.59382   1.10474  -0.00052 
 O                    -1.19412   2.25274  -0.00035 
 C                     0.67291   0.06867  -0.00009 
 C                     1.59382  -1.10474   0.00017 
 O                     1.19412  -2.25274   0.00023 
 C                     2.98287  -0.64068   0.00015 
 C                     4.12463  -1.43704   0.00027 
 H                     4.01936  -2.51765   0.00039 
 C                     5.36888  -0.82566   0.00024 
 H                     6.27247  -1.42625   0.00033 
 C                     5.46144   0.56863   0.00009 
 H                     6.44006   1.03941   0.00006 
 C                     4.32544   1.37105  -0.00004 
 H                     4.41254   2.453    -0.00016 
 C                     3.08258   0.7509   -0.00001 
 S                     1.52455   1.59385  -0.00015 
 
 ITRead=  0  0  0  0  0  0  0  0  0  0  0  0  0  0  0  0  0  0  0  0
 ITRead=  0  0  0  0  0  0  0  0
 MicOpt= -1 -1 -1 -1 -1 -1 -1 -1 -1 -1 -1 -1 -1 -1 -1 -1 -1 -1 -1 -1
 MicOpt= -1 -1 -1 -1 -1 -1 -1 -1
 NAtoms=     28 NQM=       28 NQMF=       0 NMMI=      0 NMMIF=      0
                NMic=       0 NMicF=      0.
                    Isotopes and Nuclear Properties:
 (Nuclear quadrupole moments (NQMom) in fm**2, nuclear magnetic moments (NMagM)
  in nuclear magnetons)

  Atom         1           2           3           4           5           6           7           8           9          10
 IAtWgt=           1          12          12           1          12           1          12          12          12           1
 AtmWgt=   1.0078250  12.0000000  12.0000000   1.0078250  12.0000000   1.0078250  12.0000000  12.0000000  12.0000000   1.0078250
 NucSpn=           1           0           0           1           0           1           0           0           0           1
 AtZEff=  -0.0000000  -0.0000000  -0.0000000  -0.0000000  -0.0000000  -0.0000000  -0.0000000  -0.0000000  -0.0000000  -0.0000000
 NQMom=    0.0000000   0.0000000   0.0000000   0.0000000   0.0000000   0.0000000   0.0000000   0.0000000   0.0000000   0.0000000
 NMagM=    2.7928460   0.0000000   0.0000000   2.7928460   0.0000000   2.7928460   0.0000000   0.0000000   0.0000000   2.7928460
 AtZNuc=   1.0000000   6.0000000   6.0000000   1.0000000   6.0000000   1.0000000   6.0000000   6.0000000   6.0000000   1.0000000

  Atom        11          12          13          14          15          16          17          18          19          20
 IAtWgt=          32          12          12          16          12          12          16          12          12           1
 AtmWgt=  31.9720718  12.0000000  12.0000000  15.9949146  12.0000000  12.0000000  15.9949146  12.0000000  12.0000000   1.0078250
 NucSpn=           0           0           0           0           0           0           0           0           0           1
 AtZEff=  -0.0000000  -0.0000000  -0.0000000  -0.0000000  -0.0000000  -0.0000000  -0.0000000  -0.0000000  -0.0000000  -0.0000000
 NQMom=    0.0000000   0.0000000   0.0000000   0.0000000   0.0000000   0.0000000   0.0000000   0.0000000   0.0000000   0.0000000
 NMagM=    0.0000000   0.0000000   0.0000000   0.0000000   0.0000000   0.0000000   0.0000000   0.0000000   0.0000000   2.7928460
 AtZNuc=  16.0000000   6.0000000   6.0000000   8.0000000   6.0000000   6.0000000   8.0000000   6.0000000   6.0000000   1.0000000

  Atom        21          22          23          24          25          26          27          28
 IAtWgt=          12           1          12           1          12           1          12          32
 AtmWgt=  12.0000000   1.0078250  12.0000000   1.0078250  12.0000000   1.0078250  12.0000000  31.9720718
 NucSpn=           0           1           0           1           0           1           0           0
 AtZEff=  -0.0000000  -0.0000000  -0.0000000  -0.0000000  -0.0000000  -0.0000000  -0.0000000  -0.0000000
 NQMom=    0.0000000   0.0000000   0.0000000   0.0000000   0.0000000   0.0000000   0.0000000   0.0000000
 NMagM=    0.0000000   2.7928460   0.0000000   2.7928460   0.0000000   2.7928460   0.0000000   0.0000000
 AtZNuc=   6.0000000   1.0000000   6.0000000   1.0000000   6.0000000   1.0000000   6.0000000  16.0000000
 Leave Link  101 at Mon Apr  5 17:29:50 2021, MaxMem=  1342177280 cpu:               2.9 elap:               0.2
 (Enter /data/apps/g16_2/l202.exe)
                          Input orientation:                          
 ---------------------------------------------------------------------
 Center     Atomic      Atomic             Coordinates (Angstroms)
 Number     Number       Type             X           Y           Z
 ---------------------------------------------------------------------
      1          1           0       -6.440064   -1.039412    0.000626
      2          6           0       -5.461440   -0.568628    0.000403
      3          6           0       -5.368879    0.825655    0.000270
      4          1           0       -6.272466    1.426251    0.000384
      5          6           0       -4.124627    1.437039   -0.000011
      6          1           0       -4.019357    2.517646   -0.000130
      7          6           0       -2.982873    0.640682   -0.000172
      8          6           0       -3.082578   -0.750904   -0.000020
      9          6           0       -4.325436   -1.371045    0.000263
     10          1           0       -4.412543   -2.453001    0.000380
     11         16           0       -1.524547   -1.593851   -0.000193
     12          6           0       -0.672908   -0.068670   -0.000231
     13          6           0       -1.593823    1.104736   -0.000518
     14          8           0       -1.194117    2.252742   -0.000351
     15          6           0        0.672907    0.068670   -0.000090
     16          6           0        1.593823   -1.104736    0.000168
     17          8           0        1.194117   -2.252742    0.000234
     18          6           0        2.982873   -0.640682    0.000145
     19          6           0        4.124627   -1.437039    0.000266
     20          1           0        4.019358   -2.517646    0.000385
     21          6           0        5.368879   -0.825655    0.000236
     22          1           0        6.272466   -1.426251    0.000332
     23          6           0        5.461440    0.568628    0.000085
     24          1           0        6.440064    1.039413    0.000063
     25          6           0        4.325436    1.371045   -0.000038
     26          1           0        4.412542    2.453001   -0.000155
     27          6           0        3.082578    0.750904   -0.000007
     28         16           0        1.524547    1.593851   -0.000147
 ---------------------------------------------------------------------
                    Distance matrix (angstroms):
                    1          2          3          4          5
     1  H    0.000000
     2  C    1.085975   0.000000
     3  C    2.150793   1.397352   0.000000
     4  H    2.471352   2.153440   1.084982   0.000000
     5  C    3.390289   2.410346   1.386345   2.147866   0.000000
     6  H    4.302614   3.406566   2.164265   2.503526   1.085722
     7  C    3.843811   2.757848   2.393165   3.382091   1.392044
     8  C    3.369859   2.385835   2.777177   3.862045   2.423419
     9  C    2.140475   1.390819   2.431926   3.408195   2.815255
    10  H    2.471654   2.156629   3.415284   4.302082   3.900680
    11  S    4.946687   4.068195   4.542345   5.627055   3.993333
    12  C    5.848284   4.814561   4.780372   5.795674   3.765836
    13  C    5.299380   4.214096   3.785358   4.689677   2.552527
    14  O    6.193403   5.115679   4.411940   5.145164   3.041917
    15  C    7.198764   6.167363   6.089023   7.076809   4.988864
    16  C    8.034153   7.075602   7.225346   8.263437   6.257898
    17  O    7.729999   6.865324   7.249100   8.323752   6.473293
    18  C    9.431369   8.444620   8.479499   9.483328   7.404963
    19  C   10.572171   9.625322   9.759428  10.784154   8.735589
    20  H   10.563365   9.679060   9.965774  11.021614   9.053399
    21  C   11.810877  10.833368  10.863990  11.857149   9.759428
    22  H   12.718414  11.765206  11.857149  12.865150  10.784154
    23  C   12.009646  10.981924  10.833368  11.765206   9.625322
    24  H   13.046808  12.009646  11.810877  12.718414  10.572171
    25  C   11.032058   9.977238   9.709644  10.598046   8.450321
    26  H   11.400702  10.325975   9.915869  10.734226   8.597409
    27  C    9.689476   8.645311   8.451788   9.379389   7.239792
    28  S    8.388629   7.313025   6.936097   7.798814   5.651350
                    6          7          8          9         10
     6  H    0.000000
     7  C    2.144130   0.000000
     8  C    3.400143   1.395153   0.000000
     9  C    3.900718   2.418578   1.388982   0.000000
    10  H    4.986174   3.408054   2.160079   1.085457   0.000000
    11  S    4.809208   2.668305   1.771446   2.809737   3.013081
    12  C    4.229391   2.416427   2.504387   3.877775   4.435077
    13  C    2.807050   1.464516   2.379032   3.686625   4.539017
    14  O    2.837632   2.407984   3.547982   4.789258   5.701077
    15  C    5.292903   3.700260   3.843874   5.201559   5.676322
    16  C    6.680527   4.898227   4.689768   5.925247   6.155831
    17  O    7.066605   5.081255   4.532730   5.589531   5.610235
    18  C    7.681553   6.101805   6.066452   7.344713   7.614242
    19  C    9.053398   7.404963   7.239792   8.450321   8.597410
    20  H    9.485521   7.681554   7.318393   8.423199   8.432149
    21  C    9.965773   8.479499   8.451788   9.709644   9.915870
    22  H   11.021613   9.483328   9.379389  10.598046  10.734227
    23  C    9.679059   8.444620   8.645311   9.977238  10.325976
    24  H   10.563364   9.431369   9.689476  11.032058  11.400703
    25  C    8.423198   7.344713   7.705929   9.075056   9.538113
    26  H    8.432147   7.614241   8.151186   9.538112  10.097078
    27  C    7.318392   6.066452   6.345437   7.705929   8.151187
    28  S    5.620344   4.607100   5.169475   6.558423   7.185127
                   11         12         13         14         15
    11  S    0.000000
    12  C    1.746845   0.000000
    13  C    2.699476   1.491632   0.000000
    14  O    3.860759   2.379204   1.215600   0.000000
    15  C    2.755500   1.352805   2.492288   2.873317   0.000000
    16  C    3.156496   2.492289   3.878512   4.364088   1.491633
    17  O    2.797369   2.873317   4.364089   5.099318   2.379204
    18  C    4.607100   3.700261   4.898227   5.081255   2.416428
    19  C    5.651350   4.988865   6.257898   6.473293   3.765837
    20  H    5.620345   5.292905   6.680528   7.066606   4.229393
    21  C    6.936097   6.089024   7.225346   7.249100   4.780373
    22  H    7.798814   7.076810   8.263437   8.323752   5.795675
    23  C    7.313025   6.167364   7.075602   6.865324   4.814562
    24  H    8.388630   7.198765   8.034153   7.729999   5.848285
    25  C    6.558423   5.201560   5.925247   5.589531   3.877776
    26  H    7.185126   5.676322   6.155830   5.610234   4.435077
    27  C    5.169475   3.843875   4.689768   4.532730   2.504388
    28  S    4.411170   2.755501   3.156496   2.797369   1.746845
                   16         17         18         19         20
    16  C    0.000000
    17  O    1.215600   0.000000
    18  C    1.464516   2.407984   0.000000
    19  C    2.552527   3.041917   1.392044   0.000000
    20  H    2.807051   2.837633   2.144130   1.085722   0.000000
    21  C    3.785358   4.411940   2.393165   1.386345   2.164264
    22  H    4.689677   5.145164   3.382091   2.147866   2.503525
    23  C    4.214096   5.115679   2.757848   2.410346   3.406565
    24  H    5.299380   6.193403   3.843812   3.390290   4.302614
    25  C    3.686625   4.789258   2.418578   2.815255   3.900718
    26  H    4.539016   5.701077   3.408053   3.900680   4.986173
    27  C    2.379032   3.547982   1.395153   2.423419   3.400144
    28  S    2.699476   3.860759   2.668305   3.993333   4.809209
                   21         22         23         24         25
    21  C    0.000000
    22  H    1.084982   0.000000
    23  C    1.397352   2.153440   0.000000
    24  H    2.150794   2.471354   1.085976   0.000000
    25  C    2.431926   3.408195   1.390819   2.140475   0.000000
    26  H    3.415284   4.302082   2.156629   2.471655   1.085457
    27  C    2.777177   3.862045   2.385835   3.369859   1.388982
    28  S    4.542345   5.627055   4.068195   4.946687   2.809737
                   26         27         28
    26  H    0.000000
    27  C    2.160078   0.000000
    28  S    3.013080   1.771446   0.000000
 Stoichiometry    C16H8O2S2
 Framework group  C1[X(C16H8O2S2)]
 Deg. of freedom    78
 Full point group                 C1      NOp   1
 Largest Abelian subgroup         C1      NOp   1
 Largest concise Abelian subgroup C1      NOp   1
                         Standard orientation:                         
 ---------------------------------------------------------------------
 Center     Atomic      Atomic             Coordinates (Angstroms)
 Number     Number       Type             X           Y           Z
 ---------------------------------------------------------------------
      1          1           0        6.440064    1.039412    0.000626
      2          6           0        5.461440    0.568628    0.000403
      3          6           0        5.368879   -0.825655    0.000270
      4          1           0        6.272466   -1.426251    0.000384
      5          6           0        4.124627   -1.437039   -0.000011
      6          1           0        4.019357   -2.517646   -0.000130
      7          6           0        2.982873   -0.640682   -0.000172
      8          6           0        3.082578    0.750904   -0.000020
      9          6           0        4.325436    1.371045    0.000263
     10          1           0        4.412543    2.453001    0.000380
     11         16           0        1.524547    1.593851   -0.000193
     12          6           0        0.672908    0.068670   -0.000231
     13          6           0        1.593823   -1.104736   -0.000518
     14          8           0        1.194117   -2.252742   -0.000351
     15          6           0       -0.672907   -0.068670   -0.000090
     16          6           0       -1.593823    1.104736    0.000168
     17          8           0       -1.194117    2.252742    0.000234
     18          6           0       -2.982873    0.640682    0.000145
     19          6           0       -4.124627    1.437039    0.000266
     20          1           0       -4.019358    2.517646    0.000385
     21          6           0       -5.368879    0.825655    0.000236
     22          1           0       -6.272466    1.426251    0.000332
     23          6           0       -5.461440   -0.568628    0.000085
     24          1           0       -6.440064   -1.039413    0.000063
     25          6           0       -4.325436   -1.371045   -0.000038
     26          1           0       -4.412542   -2.453001   -0.000155
     27          6           0       -3.082578   -0.750904   -0.000007
     28         16           0       -1.524547   -1.593851   -0.000147
 ---------------------------------------------------------------------
 Rotational constants (GHZ):           0.9579751           0.1575686           0.1353123
 Leave Link  202 at Mon Apr  5 17:29:50 2021, MaxMem=  1342177280 cpu:               0.0 elap:               0.0
 (Enter /data/apps/g16_2/l301.exe)
 Standard basis: 6-311++G(d,p) (5D, 7F)
 Ernie: Thresh=  0.10000D-02 Tol=  0.10000D-05 Strict=F.
 There are   532 symmetry adapted cartesian basis functions of A   symmetry.
 There are   512 symmetry adapted basis functions of A   symmetry.
   512 basis functions,   820 primitive gaussians,   532 cartesian basis functions
    76 alpha electrons       76 beta electrons
       nuclear repulsion energy      1648.7286289211 Hartrees.
 IExCor= 1009 DFT=T Ex+Corr=PBE1PBE ExCW=0 ScaHFX=  0.250000
 ScaDFX=  0.750000  0.750000  1.000000  1.000000 ScalE2=  1.000000  1.000000
 IRadAn=      5 IRanWt=     -1 IRanGd=            0 ICorTp=0 IEmpDi=  4
 NAtoms=   28 NActive=   28 NUniq=   28 SFac= 1.00D+00 NAtFMM=   60 NAOKFM=F Big=F
 Integral buffers will be    131072 words long.
 Raffenetti 2 integral format.
 Two-electron integral symmetry is turned on.
 Leave Link  301 at Mon Apr  5 17:29:51 2021, MaxMem=  1342177280 cpu:               0.8 elap:               0.1
 (Enter /data/apps/g16_2/l302.exe)
 NPDir=0 NMtPBC=     1 NCelOv=     1 NCel=       1 NClECP=     1 NCelD=      1
         NCelK=      1 NCelE2=     1 NClLst=     1 CellRange=     0.0.
 One-electron integrals computed using PRISM.
 One-electron integral symmetry used in STVInt
 NBasis=   512 RedAO= T EigKep=  2.24D-06  NBF=   512
 NBsUse=   505 1.00D-06 EigRej=  9.33D-07 NBFU=   505
 Precomputing XC quadrature grid using
 IXCGrd= 4 IRadAn=           5 IRanWt=          -1 IRanGd=           0 AccXCQ= 0.00D+00.
 Generated NRdTot=       0 NPtTot=           0 NUsed=           0 NTot=          32
 NSgBfM=   517   517   517   517   517 MxSgAt=    28 MxSgA2=    28.
 Leave Link  302 at Mon Apr  5 17:29:51 2021, MaxMem=  1342177280 cpu:               7.4 elap:               0.6
 (Enter /data/apps/g16_2/l303.exe)
 DipDrv:  MaxL=1.
 Leave Link  303 at Mon Apr  5 17:29:52 2021, MaxMem=  1342177280 cpu:               1.1 elap:               0.1
 (Enter /data/apps/g16_2/l401.exe)
 ExpMin= 3.60D-02 ExpMax= 9.34D+04 ExpMxC= 3.17D+03 IAcc=3 IRadAn=         5 AccDes= 0.00D+00
 Harris functional with IExCor= 1009 and IRadAn=       5 diagonalized for initial guess.
 HarFok:  IExCor= 1009 AccDes= 0.00D+00 IRadAn=         5 IDoV= 1 UseB2=F ITyADJ=14
 ICtDFT=  3500011 ScaDFX=  1.000000  1.000000  1.000000  1.000000
 FoFCou: FMM=F IPFlag=           0 FMFlag=      100000 FMFlg1=           0
         NFxFlg=           0 DoJE=T BraDBF=F KetDBF=T FulRan=T
         wScrn=  0.000000 ICntrl=       500 IOpCl=  0 I1Cent=   200000004 NGrid=           0
         NMat0=    1 NMatS0=      1 NMatT0=    0 NMatD0=    1 NMtDS0=    0 NMtDT0=    0
 Petite list used in FoFCou.
 Harris En= -1560.48992205377    
 JPrj=0 DoOrth=F DoCkMO=F.
 Leave Link  401 at Mon Apr  5 17:29:54 2021, MaxMem=  1342177280 cpu:              23.7 elap:               2.0
 (Enter /data/apps/g16_2/l502.exe)
 Integral symmetry usage will be decided dynamically.
 Closed shell SCF:
 Using DIIS extrapolation, IDIIS=  1040.
 NGot=  1342177280 LenX=  1341599992 LenY=  1341316436
 Requested convergence on RMS density matrix=1.00D-08 within 128 cycles.
 Requested convergence on MAX density matrix=1.00D-06.
 Requested convergence on             energy=1.00D-06.
 No special actions if energy rises.
 Fock matrices will be formed incrementally for  20 cycles.

 Cycle   1  Pass 1  IDiag  1:
 FoFJK:  IHMeth= 1 ICntrl=       0 DoSepK=F KAlg= 0 I1Cent=           0 FoldK=F
 IRaf= 790000000 NMat=       1 IRICut=       1 DoRegI=T DoRafI=F ISym2E= 0 IDoP0=0 IntGTp=1.
 FoFCou: FMM=F IPFlag=           0 FMFlag=      100000 FMFlg1=           0
         NFxFlg=           0 DoJE=F BraDBF=F KetDBF=F FulRan=T
         wScrn=  0.000000 ICntrl=         0 IOpCl=  0 I1Cent=           0 NGrid=           0
         NMat0=    1 NMatS0=      1 NMatT0=    0 NMatD0=    1 NMtDS0=    0 NMtDT0=    0
 Symmetry not used in FoFCou.
 E= -1559.91353699085    
 DIIS: error= 4.09D-02 at cycle   1 NSaved=   1.
 NSaved= 1 IEnMin= 1 EnMin= -1559.91353699085     IErMin= 1 ErrMin= 4.09D-02
 ErrMax= 4.09D-02  0.00D+00 EMaxC= 1.00D-01 BMatC= 6.11D-01 BMatP= 6.11D-01
 IDIUse=3 WtCom= 5.91D-01 WtEn= 4.09D-01
 Coeff-Com:  0.100D+01
 Coeff-En:   0.100D+01
 Coeff:      0.100D+01
 Gap=     0.198 Goal=   None    Shift=    0.000
 GapD=    0.198 DampG=1.000 DampE=0.500 DampFc=0.5000 IDamp=-1.
 Damping current iteration by 5.00D-01
 RMSDP=6.21D-02 MaxDP=4.43D+00              OVMax= 2.99D-01

 Cycle   2  Pass 1  IDiag  1:
 RMSU=  3.10D-02    CP:  1.01D+00
 E= -1560.07189277661     Delta-E=       -0.158355785756 Rises=F Damp=T
 DIIS: error= 1.22D-02 at cycle   2 NSaved=   2.
 NSaved= 2 IEnMin= 2 EnMin= -1560.07189277661     IErMin= 2 ErrMin= 1.22D-02
 ErrMax= 1.22D-02  0.00D+00 EMaxC= 1.00D-01 BMatC= 7.71D-02 BMatP= 6.11D-01
 IDIUse=3 WtCom= 8.78D-01 WtEn= 1.22D-01
 Coeff-Com:  0.147D+00 0.853D+00
 Coeff-En:   0.307D+00 0.693D+00
 Coeff:      0.166D+00 0.834D+00
 Gap=     0.205 Goal=   None    Shift=    0.000
 RMSDP=2.54D-02 MaxDP=1.94D+00 DE=-1.58D-01 OVMax= 2.41D-01

 Cycle   3  Pass 1  IDiag  1:
 RMSU=  6.78D-03    CP:  9.33D-01  2.34D-01
 E= -1560.36378424856     Delta-E=       -0.291891471953 Rises=F Damp=F
 DIIS: error= 1.57D-02 at cycle   3 NSaved=   3.
 NSaved= 3 IEnMin= 3 EnMin= -1560.36378424856     IErMin= 2 ErrMin= 1.22D-02
 ErrMax= 1.57D-02  0.00D+00 EMaxC= 1.00D-01 BMatC= 6.02D-02 BMatP= 7.71D-02
 IDIUse=3 WtCom= 8.43D-01 WtEn= 1.57D-01
 Coeff-Com: -0.110D-02 0.462D+00 0.539D+00
 Coeff-En:   0.000D+00 0.000D+00 0.100D+01
 Coeff:     -0.929D-03 0.390D+00 0.611D+00
 Gap=     0.106 Goal=   None    Shift=    0.000
 RMSDP=6.05D-03 MaxDP=3.78D-01 DE=-2.92D-01 OVMax= 9.55D-02

 Cycle   4  Pass 1  IDiag  1:
 RMSU=  4.24D-03    CP:  9.68D-01  3.37D-01  8.03D-01
 E= -1560.38121167457     Delta-E=       -0.017427426005 Rises=F Damp=F
 DIIS: error= 1.33D-02 at cycle   4 NSaved=   4.
 NSaved= 4 IEnMin= 4 EnMin= -1560.38121167457     IErMin= 2 ErrMin= 1.22D-02
 ErrMax= 1.33D-02  0.00D+00 EMaxC= 1.00D-01 BMatC= 3.95D-02 BMatP= 6.02D-02
 IDIUse=3 WtCom= 8.67D-01 WtEn= 1.33D-01
 Coeff-Com: -0.234D-01 0.104D+00 0.455D+00 0.465D+00
 Coeff-En:   0.000D+00 0.000D+00 0.421D+00 0.579D+00
 Coeff:     -0.203D-01 0.898D-01 0.451D+00 0.480D+00
 Gap=     0.112 Goal=   None    Shift=    0.000
 RMSDP=5.06D-03 MaxDP=3.87D-01 DE=-1.74D-02 OVMax= 4.62D-02

 Cycle   5  Pass 1  IDiag  1:
 RMSU=  1.66D-03    CP:  9.15D-01  3.28D-01  9.40D-01  4.22D-01
 E= -1560.41486652329     Delta-E=       -0.033654848721 Rises=F Damp=F
 DIIS: error= 1.00D-03 at cycle   5 NSaved=   5.
 NSaved= 5 IEnMin= 5 EnMin= -1560.41486652329     IErMin= 5 ErrMin= 1.00D-03
 ErrMax= 1.00D-03  0.00D+00 EMaxC= 1.00D-01 BMatC= 4.81D-04 BMatP= 3.95D-02
 IDIUse=3 WtCom= 9.90D-01 WtEn= 1.00D-02
 Coeff-Com: -0.499D-02 0.993D-02 0.153D+00 0.205D+00 0.637D+00
 Coeff-En:   0.000D+00 0.000D+00 0.000D+00 0.000D+00 0.100D+01
 Coeff:     -0.494D-02 0.983D-02 0.151D+00 0.203D+00 0.641D+00
 Gap=     0.110 Goal=   None    Shift=    0.000
 RMSDP=6.99D-04 MaxDP=4.18D-02 DE=-3.37D-02 OVMax= 7.08D-03

 Cycle   6  Pass 1  IDiag  1:
 RMSU=  2.47D-04    CP:  9.18D-01  3.12D-01  9.37D-01  4.63D-01  8.35D-01
 E= -1560.41523845807     Delta-E=       -0.000371934782 Rises=F Damp=F
 DIIS: error= 8.08D-04 at cycle   6 NSaved=   6.
 NSaved= 6 IEnMin= 6 EnMin= -1560.41523845807     IErMin= 6 ErrMin= 8.08D-04
 ErrMax= 8.08D-04  0.00D+00 EMaxC= 1.00D-01 BMatC= 1.00D-04 BMatP= 4.81D-04
 IDIUse=3 WtCom= 9.92D-01 WtEn= 8.08D-03
 Coeff-Com: -0.654D-03-0.345D-02 0.546D-01 0.872D-01 0.384D+00 0.478D+00
 Coeff-En:   0.000D+00 0.000D+00 0.000D+00 0.000D+00 0.114D+00 0.886D+00
 Coeff:     -0.648D-03-0.342D-02 0.542D-01 0.865D-01 0.382D+00 0.482D+00
 Gap=     0.111 Goal=   None    Shift=    0.000
 RMSDP=2.81D-04 MaxDP=1.35D-02 DE=-3.72D-04 OVMax= 3.30D-03

 Cycle   7  Pass 1  IDiag  1:
 RMSU=  1.09D-04    CP:  9.21D-01  3.13D-01  9.38D-01  4.63D-01  7.62D-01
                    CP:  8.14D-01
 E= -1560.41533973094     Delta-E=       -0.000101272873 Rises=F Damp=F
 DIIS: error= 2.27D-04 at cycle   7 NSaved=   7.
 NSaved= 7 IEnMin= 7 EnMin= -1560.41533973094     IErMin= 7 ErrMin= 2.27D-04
 ErrMax= 2.27D-04  0.00D+00 EMaxC= 1.00D-01 BMatC= 6.95D-06 BMatP= 1.00D-04
 IDIUse=3 WtCom= 9.98D-01 WtEn= 2.27D-03
 Coeff-Com:  0.462D-03-0.295D-02 0.819D-02 0.174D-01 0.936D-01 0.238D+00
 Coeff-Com:  0.646D+00
 Coeff-En:   0.000D+00 0.000D+00 0.000D+00 0.000D+00 0.000D+00 0.695D-02
 Coeff-En:   0.993D+00
 Coeff:      0.461D-03-0.294D-02 0.817D-02 0.174D-01 0.934D-01 0.237D+00
 Coeff:      0.646D+00
 Gap=     0.111 Goal=   None    Shift=    0.000
 RMSDP=6.48D-05 MaxDP=2.78D-03 DE=-1.01D-04 OVMax= 1.07D-03

 Cycle   8  Pass 1  IDiag  1:
 RMSU=  3.32D-05    CP:  9.22D-01  3.12D-01  9.39D-01  4.70D-01  7.75D-01
                    CP:  8.79D-01  8.46D-01
 E= -1560.41534704009     Delta-E=       -0.000007309145 Rises=F Damp=F
 DIIS: error= 3.66D-05 at cycle   8 NSaved=   8.
 NSaved= 8 IEnMin= 8 EnMin= -1560.41534704009     IErMin= 8 ErrMin= 3.66D-05
 ErrMax= 3.66D-05  0.00D+00 EMaxC= 1.00D-01 BMatC= 8.52D-07 BMatP= 6.95D-06
 IDIUse=1 WtCom= 1.00D+00 WtEn= 0.00D+00
 Coeff-Com:  0.380D-03-0.122D-02-0.201D-02-0.142D-02 0.165D-02 0.630D-01
 Coeff-Com:  0.324D+00 0.615D+00
 Coeff:      0.380D-03-0.122D-02-0.201D-02-0.142D-02 0.165D-02 0.630D-01
 Coeff:      0.324D+00 0.615D+00
 Gap=     0.111 Goal=   None    Shift=    0.000
 RMSDP=2.13D-05 MaxDP=8.59D-04 DE=-7.31D-06 OVMax= 3.69D-04

 Cycle   9  Pass 1  IDiag  1:
 RMSU=  1.03D-05    CP:  9.21D-01  3.12D-01  9.40D-01  4.68D-01  7.70D-01
                    CP:  8.89D-01  9.58D-01  8.03D-01
 E= -1560.41534791426     Delta-E=       -0.000000874176 Rises=F Damp=F
 DIIS: error= 1.64D-05 at cycle   9 NSaved=   9.
 NSaved= 9 IEnMin= 9 EnMin= -1560.41534791426     IErMin= 9 ErrMin= 1.64D-05
 ErrMax= 1.64D-05  0.00D+00 EMaxC= 1.00D-01 BMatC= 1.11D-07 BMatP= 8.52D-07
 IDIUse=1 WtCom= 1.00D+00 WtEn= 0.00D+00
 Coeff-Com:  0.172D-03-0.366D-03-0.212D-02-0.299D-02-0.103D-01 0.629D-02
 Coeff-Com:  0.994D-01 0.325D+00 0.584D+00
 Coeff:      0.172D-03-0.366D-03-0.212D-02-0.299D-02-0.103D-01 0.629D-02
 Coeff:      0.994D-01 0.325D+00 0.584D+00
 Gap=     0.111 Goal=   None    Shift=    0.000
 RMSDP=1.18D-05 MaxDP=4.82D-04 DE=-8.74D-07 OVMax= 1.05D-04

 Cycle  10  Pass 1  IDiag  1:
 RMSU=  3.09D-06    CP:  9.21D-01  3.12D-01  9.40D-01  4.68D-01  7.74D-01
                    CP:  8.99D-01  9.45D-01  9.25D-01  8.78D-01
 E= -1560.41534802579     Delta-E=       -0.000000111524 Rises=F Damp=F
 DIIS: error= 4.88D-06 at cycle  10 NSaved=  10.
 NSaved=10 IEnMin=10 EnMin= -1560.41534802579     IErMin=10 ErrMin= 4.88D-06
 ErrMax= 4.88D-06  0.00D+00 EMaxC= 1.00D-01 BMatC= 7.28D-09 BMatP= 1.11D-07
 IDIUse=1 WtCom= 1.00D+00 WtEn= 0.00D+00
 Coeff-Com:  0.333D-04-0.412D-04-0.625D-03-0.103D-02-0.427D-02-0.323D-02
 Coeff-Com:  0.116D-01 0.802D-01 0.255D+00 0.662D+00
 Coeff:      0.333D-04-0.412D-04-0.625D-03-0.103D-02-0.427D-02-0.323D-02
 Coeff:      0.116D-01 0.802D-01 0.255D+00 0.662D+00
 Gap=     0.111 Goal=   None    Shift=    0.000
 RMSDP=3.96D-06 MaxDP=1.89D-04 DE=-1.12D-07 OVMax= 6.37D-05

 Cycle  11  Pass 1  IDiag  1:
 RMSU=  1.00D-06    CP:  9.21D-01  3.12D-01  9.40D-01  4.68D-01  7.73D-01
                    CP:  8.98D-01  9.53D-01  9.02D-01  9.07D-01  8.37D-01
 E= -1560.41534803291     Delta-E=       -0.000000007123 Rises=F Damp=F
 DIIS: error= 4.02D-06 at cycle  11 NSaved=  11.
 NSaved=11 IEnMin=11 EnMin= -1560.41534803291     IErMin=11 ErrMin= 4.02D-06
 ErrMax= 4.02D-06  0.00D+00 EMaxC= 1.00D-01 BMatC= 2.11D-09 BMatP= 7.28D-09
 IDIUse=1 WtCom= 1.00D+00 WtEn= 0.00D+00
 Coeff-Com: -0.520D-05 0.299D-04-0.812D-04-0.182D-03-0.125D-02-0.303D-02
 Coeff-Com: -0.714D-02-0.254D-03 0.651D-01 0.396D+00 0.551D+00
 Coeff:     -0.520D-05 0.299D-04-0.812D-04-0.182D-03-0.125D-02-0.303D-02
 Coeff:     -0.714D-02-0.254D-03 0.651D-01 0.396D+00 0.551D+00
 Gap=     0.111 Goal=   None    Shift=    0.000
 RMSDP=1.40D-06 MaxDP=7.92D-05 DE=-7.12D-09 OVMax= 1.93D-05

 Cycle  12  Pass 1  IDiag  1:
 RMSU=  4.95D-07    CP:  9.21D-01  3.12D-01  9.40D-01  4.68D-01  7.73D-01
                    CP:  8.99D-01  9.53D-01  9.20D-01  9.11D-01  8.86D-01
                    CP:  9.89D-01
 E= -1560.41534803533     Delta-E=       -0.000000002416 Rises=F Damp=F
 DIIS: error= 5.73D-07 at cycle  12 NSaved=  12.
 NSaved=12 IEnMin=12 EnMin= -1560.41534803533     IErMin=12 ErrMin= 5.73D-07
 ErrMax= 5.73D-07  0.00D+00 EMaxC= 1.00D-01 BMatC= 8.09D-11 BMatP= 2.11D-09
 IDIUse=1 WtCom= 1.00D+00 WtEn= 0.00D+00
 Coeff-Com: -0.379D-05 0.102D-04 0.234D-04 0.416D-04-0.685D-04-0.680D-03
 Coeff-Com: -0.285D-02-0.767D-02-0.374D-02 0.742D-01 0.197D+00 0.744D+00
 Coeff:     -0.379D-05 0.102D-04 0.234D-04 0.416D-04-0.685D-04-0.680D-03
 Coeff:     -0.285D-02-0.767D-02-0.374D-02 0.742D-01 0.197D+00 0.744D+00
 Gap=     0.111 Goal=   None    Shift=    0.000
 RMSDP=2.32D-07 MaxDP=1.02D-05 DE=-2.42D-09 OVMax= 6.54D-06

 Cycle  13  Pass 1  IDiag  1:
 RMSU=  8.15D-08    CP:  9.21D-01  3.12D-01  9.40D-01  4.68D-01  7.73D-01
                    CP:  8.99D-01  9.54D-01  9.19D-01  9.15D-01  9.00D-01
                    CP:  1.04D+00  8.05D-01
 E= -1560.41534803544     Delta-E=       -0.000000000111 Rises=F Damp=F
 DIIS: error= 3.49D-07 at cycle  13 NSaved=  13.
 NSaved=13 IEnMin=13 EnMin= -1560.41534803544     IErMin=13 ErrMin= 3.49D-07
 ErrMax= 3.49D-07  0.00D+00 EMaxC= 1.00D-01 BMatC= 1.94D-11 BMatP= 8.09D-11
 IDIUse=1 WtCom= 1.00D+00 WtEn= 0.00D+00
 Coeff-Com: -0.167D-05 0.349D-05 0.170D-04 0.358D-04 0.417D-04-0.181D-03
 Coeff-Com: -0.106D-02-0.442D-02-0.785D-02 0.109D-01 0.671D-01 0.429D+00
 Coeff-Com:  0.506D+00
 Coeff:     -0.167D-05 0.349D-05 0.170D-04 0.358D-04 0.417D-04-0.181D-03
 Coeff:     -0.106D-02-0.442D-02-0.785D-02 0.109D-01 0.671D-01 0.429D+00
 Coeff:      0.506D+00
 Gap=     0.111 Goal=   None    Shift=    0.000
 RMSDP=8.78D-08 MaxDP=5.21D-06 DE=-1.11D-10 OVMax= 2.79D-06

 Cycle  14  Pass 1  IDiag  1:
 RMSU=  2.81D-08    CP:  9.21D-01  3.12D-01  9.40D-01  4.68D-01  7.73D-01
                    CP:  8.99D-01  9.54D-01  9.19D-01  9.16D-01  9.01D-01
                    CP:  1.04D+00  8.57D-01  7.60D-01
 E= -1560.41534803548     Delta-E=       -0.000000000041 Rises=F Damp=F
 DIIS: error= 1.14D-07 at cycle  14 NSaved=  14.
 NSaved=14 IEnMin=14 EnMin= -1560.41534803548     IErMin=14 ErrMin= 1.14D-07
 ErrMax= 1.14D-07  0.00D+00 EMaxC= 1.00D-01 BMatC= 1.85D-12 BMatP= 1.94D-11
 IDIUse=1 WtCom= 1.00D+00 WtEn= 0.00D+00
 Coeff-Com: -0.114D-06-0.622D-07 0.366D-05 0.959D-05 0.328D-04 0.198D-04
 Coeff-Com:  0.132D-04-0.625D-03-0.306D-02-0.786D-02-0.568D-02 0.655D-01
 Coeff-Com:  0.256D+00 0.696D+00
 Coeff:     -0.114D-06-0.622D-07 0.366D-05 0.959D-05 0.328D-04 0.198D-04
 Coeff:      0.132D-04-0.625D-03-0.306D-02-0.786D-02-0.568D-02 0.655D-01
 Coeff:      0.256D+00 0.696D+00
 Gap=     0.111 Goal=   None    Shift=    0.000
 RMSDP=3.68D-08 MaxDP=1.45D-06 DE=-4.09D-11 OVMax= 1.04D-06

 Cycle  15  Pass 1  IDiag  1:
 RMSU=  1.42D-08    CP:  9.21D-01  3.12D-01  9.40D-01  4.68D-01  7.73D-01
                    CP:  8.99D-01  9.54D-01  9.19D-01  9.15D-01  9.03D-01
                    CP:  1.06D+00  8.83D-01  8.53D-01  1.04D+00
 E= -1560.41534803544     Delta-E=        0.000000000034 Rises=F Damp=F
 DIIS: error= 1.60D-08 at cycle  15 NSaved=  15.
 NSaved=15 IEnMin=14 EnMin= -1560.41534803548     IErMin=15 ErrMin= 1.60D-08
 ErrMax= 1.60D-08  0.00D+00 EMaxC= 1.00D-01 BMatC= 1.35D-13 BMatP= 1.85D-12
 IDIUse=1 WtCom= 1.00D+00 WtEn= 0.00D+00
 Coeff-Com:  0.143D-06-0.405D-06-0.393D-06-0.784D-08 0.106D-04 0.276D-04
 Coeff-Com:  0.149D-03 0.350D-03-0.191D-03-0.434D-02-0.107D-01-0.296D-01
 Coeff-Com:  0.474D-01 0.252D+00 0.745D+00
 Coeff:      0.143D-06-0.405D-06-0.393D-06-0.784D-08 0.106D-04 0.276D-04
 Coeff:      0.149D-03 0.350D-03-0.191D-03-0.434D-02-0.107D-01-0.296D-01
 Coeff:      0.474D-01 0.252D+00 0.745D+00
 Gap=     0.111 Goal=   None    Shift=    0.000
 RMSDP=1.76D-08 MaxDP=8.80D-07 DE= 3.37D-11 OVMax= 3.68D-07

 Cycle  16  Pass 1  IDiag  1:
 RMSU=  2.96D-09    CP:  9.21D-01  3.12D-01  9.40D-01  4.68D-01  7.73D-01
                    CP:  8.99D-01  9.54D-01  9.19D-01  9.15D-01  9.02D-01
                    CP:  1.06D+00  8.87D-01  8.74D-01  1.08D+00  9.17D-01
 E= -1560.41534803548     Delta-E=       -0.000000000036 Rises=F Damp=F
 DIIS: error= 8.38D-09 at cycle  16 NSaved=  16.
 NSaved=16 IEnMin=16 EnMin= -1560.41534803548     IErMin=16 ErrMin= 8.38D-09
 ErrMax= 8.38D-09  0.00D+00 EMaxC= 1.00D-01 BMatC= 2.37D-14 BMatP= 1.35D-13
 IDIUse=1 WtCom= 1.00D+00 WtEn= 0.00D+00
 Coeff-Com:  0.680D-07-0.145D-06-0.680D-06-0.106D-05 0.512D-06 0.660D-05
 Coeff-Com:  0.613D-04 0.216D-03 0.225D-03-0.956D-03-0.373D-02-0.190D-01
 Coeff-Com:  0.740D-03 0.446D-01 0.362D+00 0.616D+00
 Coeff:      0.680D-07-0.145D-06-0.680D-06-0.106D-05 0.512D-06 0.660D-05
 Coeff:      0.613D-04 0.216D-03 0.225D-03-0.956D-03-0.373D-02-0.190D-01
 Coeff:      0.740D-03 0.446D-01 0.362D+00 0.616D+00
 Gap=     0.111 Goal=   None    Shift=    0.000
 RMSDP=4.13D-09 MaxDP=2.34D-07 DE=-3.59D-11 OVMax= 7.80D-08

 SCF Done:  E(RPBE1PBE) =  -1560.41534804     A.U. after   16 cycles
            NFock= 16  Conv=0.41D-08     -V/T= 2.0025
 KE= 1.556587989151D+03 PE=-6.971608507612D+03 EE= 2.205876541504D+03
 Leave Link  502 at Mon Apr  5 17:32:19 2021, MaxMem=  1342177280 cpu:            1739.2 elap:             145.1
 (Enter /data/apps/g16_2/l601.exe)
 Copying SCF densities to generalized density rwf, IOpCl= 0 IROHF=0.

 **********************************************************************

            Population analysis using the SCF Density.

 **********************************************************************

 Orbital symmetries:
       Occupied  (A) (A) (A) (A) (A) (A) (A) (A) (A) (A) (A) (A)
                 (A) (A) (A) (A) (A) (A) (A) (A) (A) (A) (A) (A)
                 (A) (A) (A) (A) (A) (A) (A) (A) (A) (A) (A) (A)
                 (A) (A) (A) (A) (A) (A) (A) (A) (A) (A) (A) (A)
                 (A) (A) (A) (A) (A) (A) (A) (A) (A) (A) (A) (A)
                 (A) (A) (A) (A) (A) (A) (A) (A) (A) (A) (A) (A)
                 (A) (A) (A) (A)
       Virtual   (A) (A) (A) (A) (A) (A) (A) (A) (A) (A) (A) (A)
                 (A) (A) (A) (A) (A) (A) (A) (A) (A) (A) (A) (A)
                 (A) (A) (A) (A) (A) (A) (A) (A) (A) (A) (A) (A)
                 (A) (A) (A) (A) (A) (A) (A) (A) (A) (A) (A) (A)
                 (A) (A) (A) (A) (A) (A) (A) (A) (A) (A) (A) (A)
                 (A) (A) (A) (A) (A) (A) (A) (A) (A) (A) (A) (A)
                 (A) (A) (A) (A) (A) (A) (A) (A) (A) (A) (A) (A)
                 (A) (A) (A) (A) (A) (A) (A) (A) (A) (A) (A) (A)
                 (A) (A) (A) (A) (A) (A) (A) (A) (A) (A) (A) (A)
                 (A) (A) (A) (A) (A) (A) (A) (A) (A) (A) (A) (A)
                 (A) (A) (A) (A) (A) (A) (A) (A) (A) (A) (A) (A)
                 (A) (A) (A) (A) (A) (A) (A) (A) (A) (A) (A) (A)
                 (A) (A) (A) (A) (A) (A) (A) (A) (A) (A) (A) (A)
                 (A) (A) (A) (A) (A) (A) (A) (A) (A) (A) (A) (A)
                 (A) (A) (A) (A) (A) (A) (A) (A) (A) (A) (A) (A)
                 (A) (A) (A) (A) (A) (A) (A) (A) (A) (A) (A) (A)
                 (A) (A) (A) (A) (A) (A) (A) (A) (A) (A) (A) (A)
                 (A) (A) (A) (A) (A) (A) (A) (A) (A) (A) (A) (A)
                 (A) (A) (A) (A) (A) (A) (A) (A) (A) (A) (A) (A)
                 (A) (A) (A) (A) (A) (A) (A) (A) (A) (A) (A) (A)
                 (A) (A) (A) (A) (A) (A) (A) (A) (A) (A) (A) (A)
                 (A) (A) (A) (A) (A) (A) (A) (A) (A) (A) (A) (A)
                 (A) (A) (A) (A) (A) (A) (A) (A) (A) (A) (A) (A)
                 (A) (A) (A) (A) (A) (A) (A) (A) (A) (A) (A) (A)
                 (A) (A) (A) (A) (A) (A) (A) (A) (A) (A) (A) (A)
                 (A) (A) (A) (A) (A) (A) (A) (A) (A) (A) (A) (A)
                 (A) (A) (A) (A) (A) (A) (A) (A) (A) (A) (A) (A)
                 (A) (A) (A) (A) (A) (A) (A) (A) (A) (A) (A) (A)
                 (A) (A) (A) (A) (A) (A) (A) (A) (A) (A) (A) (A)
                 (A) (A) (A) (A) (A) (A) (A) (A) (A) (A) (A) (A)
                 (A) (A) (A) (A) (A) (A) (A) (A) (A) (A) (A) (A)
                 (A) (A) (A) (A) (A) (A) (A) (A) (A) (A) (A) (A)
                 (A) (A) (A) (A) (A) (A) (A) (A) (A) (A) (A) (A)
                 (A) (A) (A) (A) (A) (A) (A) (A) (A) (A) (A) (A)
                 (A) (A) (A) (A) (A) (A) (A) (A) (A) (A) (A) (A)
                 (A) (A) (A) (A) (A) (A) (A) (A) (A)
 The electronic state is 1-A.
 Alpha  occ. eigenvalues --  -89.05994 -89.05994 -19.21176 -19.21176 -10.33027
 Alpha  occ. eigenvalues --  -10.33027 -10.29255 -10.29177 -10.28458 -10.28458
 Alpha  occ. eigenvalues --  -10.25619 -10.25619 -10.25464 -10.25464 -10.25356
 Alpha  occ. eigenvalues --  -10.25356 -10.25220 -10.25220 -10.24672 -10.24672
 Alpha  occ. eigenvalues --   -8.04292  -8.04292  -5.98005  -5.98005  -5.97648
 Alpha  occ. eigenvalues --   -5.97648  -5.97148  -5.97148  -1.09498  -1.09285
 Alpha  occ. eigenvalues --   -0.93969  -0.93299  -0.89154  -0.86437  -0.80906
 Alpha  occ. eigenvalues --   -0.80863  -0.80808  -0.76301  -0.73451  -0.72229
 Alpha  occ. eigenvalues --   -0.68708  -0.64114  -0.63174  -0.62909  -0.60063
 Alpha  occ. eigenvalues --   -0.57109  -0.52807  -0.52767  -0.51917  -0.51464
 Alpha  occ. eigenvalues --   -0.49079  -0.47988  -0.47447  -0.47282  -0.46927
 Alpha  occ. eigenvalues --   -0.46125  -0.45807  -0.45287  -0.43973  -0.41522
 Alpha  occ. eigenvalues --   -0.40461  -0.40361  -0.40348  -0.39423  -0.39300
 Alpha  occ. eigenvalues --   -0.37306  -0.36737  -0.36530  -0.34556  -0.30272
 Alpha  occ. eigenvalues --   -0.29547  -0.29316  -0.29263  -0.28208  -0.26003
 Alpha  occ. eigenvalues --   -0.23121
 Alpha virt. eigenvalues --   -0.12026  -0.05951  -0.02883  -0.02586  -0.01085
 Alpha virt. eigenvalues --   -0.00467  -0.00266   0.00954   0.01341   0.01723
 Alpha virt. eigenvalues --    0.01989   0.02732   0.03480   0.03775   0.04272
 Alpha virt. eigenvalues --    0.04461   0.05094   0.05419   0.05523   0.06023
 Alpha virt. eigenvalues --    0.06745   0.06821   0.06965   0.07789   0.07962
 Alpha virt. eigenvalues --    0.08520   0.08585   0.08894   0.09965   0.10525
 Alpha virt. eigenvalues --    0.10747   0.10884   0.11342   0.11634   0.11790
 Alpha virt. eigenvalues --    0.11890   0.12393   0.12393   0.12595   0.12946
 Alpha virt. eigenvalues --    0.13206   0.13315   0.14011   0.14096   0.14533
 Alpha virt. eigenvalues --    0.14617   0.14668   0.15208   0.15403   0.15872
 Alpha virt. eigenvalues --    0.16195   0.16277   0.16601   0.16851   0.17178
 Alpha virt. eigenvalues --    0.17613   0.17879   0.18609   0.18981   0.19752
 Alpha virt. eigenvalues --    0.19876   0.20112   0.20159   0.21053   0.21376
 Alpha virt. eigenvalues --    0.21581   0.21590   0.22149   0.22202   0.22516
 Alpha virt. eigenvalues --    0.22621   0.23513   0.23601   0.23906   0.24185
 Alpha virt. eigenvalues --    0.24653   0.24915   0.25643   0.25937   0.26062
 Alpha virt. eigenvalues --    0.26866   0.27204   0.27665   0.28282   0.28381
 Alpha virt. eigenvalues --    0.29105   0.29193   0.29915   0.29985   0.30143
 Alpha virt. eigenvalues --    0.31133   0.31261   0.31979   0.32322   0.32744
 Alpha virt. eigenvalues --    0.32907   0.33277   0.33927   0.34934   0.35101
 Alpha virt. eigenvalues --    0.35451   0.35621   0.35722   0.36985   0.36996
 Alpha virt. eigenvalues --    0.37702   0.37976   0.38968   0.39548   0.39856
 Alpha virt. eigenvalues --    0.39941   0.40387   0.41742   0.42355   0.43955
 Alpha virt. eigenvalues --    0.44790   0.45883   0.46114   0.48549   0.49376
 Alpha virt. eigenvalues --    0.49575   0.52612   0.53703   0.53952   0.53986
 Alpha virt. eigenvalues --    0.54273   0.54290   0.54924   0.54957   0.55182
 Alpha virt. eigenvalues --    0.55260   0.56779   0.56812   0.57309   0.57564
 Alpha virt. eigenvalues --    0.58055   0.58070   0.59010   0.59203   0.60510
 Alpha virt. eigenvalues --    0.61820   0.62853   0.62883   0.63010   0.63169
 Alpha virt. eigenvalues --    0.63877   0.64666   0.64964   0.66660   0.66929
 Alpha virt. eigenvalues --    0.67082   0.69022   0.69313   0.69568   0.70552
 Alpha virt. eigenvalues --    0.71244   0.73169   0.73506   0.73979   0.75376
 Alpha virt. eigenvalues --    0.75547   0.75970   0.76805   0.77004   0.77442
 Alpha virt. eigenvalues --    0.79205   0.79731   0.80489   0.81229   0.83337
 Alpha virt. eigenvalues --    0.83530   0.84038   0.84813   0.84925   0.86301
 Alpha virt. eigenvalues --    0.86463   0.86732   0.87014   0.88065   0.88331
 Alpha virt. eigenvalues --    0.88560   0.88637   0.89437   0.90802   0.91449
 Alpha virt. eigenvalues --    0.91905   0.92678   0.94118   0.94161   0.95998
 Alpha virt. eigenvalues --    0.96873   0.97499   0.97720   0.97765   0.98253
 Alpha virt. eigenvalues --    0.98484   0.99370   1.00157   1.01467   1.02716
 Alpha virt. eigenvalues --    1.03111   1.04775   1.05031   1.05286   1.05525
 Alpha virt. eigenvalues --    1.05943   1.07271   1.07673   1.09046   1.09175
 Alpha virt. eigenvalues --    1.11850   1.11925   1.13070   1.13350   1.13901
 Alpha virt. eigenvalues --    1.15960   1.17455   1.19343   1.21138   1.22819
 Alpha virt. eigenvalues --    1.25789   1.26286   1.26981   1.27481   1.27608
 Alpha virt. eigenvalues --    1.30186   1.30504   1.32406   1.33077   1.37905
 Alpha virt. eigenvalues --    1.38248   1.41269   1.42516   1.47870   1.50194
 Alpha virt. eigenvalues --    1.50281   1.50720   1.51440   1.51477   1.52012
 Alpha virt. eigenvalues --    1.52738   1.55952   1.56053   1.56304   1.58434
 Alpha virt. eigenvalues --    1.59543   1.60753   1.60927   1.61911   1.62483
 Alpha virt. eigenvalues --    1.62739   1.65412   1.65695   1.65843   1.66994
 Alpha virt. eigenvalues --    1.70740   1.71373   1.72973   1.74189   1.74322
 Alpha virt. eigenvalues --    1.75159   1.75239   1.77174   1.78076   1.80770
 Alpha virt. eigenvalues --    1.81456   1.84510   1.85480   1.86326   1.87270
 Alpha virt. eigenvalues --    1.88524   1.90663   1.90706   1.90869   1.92523
 Alpha virt. eigenvalues --    1.92892   1.93423   1.93864   1.95642   1.96324
 Alpha virt. eigenvalues --    1.96363   1.97407   1.98508   1.98764   2.00592
 Alpha virt. eigenvalues --    2.01473   2.01661   2.02329   2.03701   2.05047
 Alpha virt. eigenvalues --    2.05726   2.06200   2.06969   2.08247   2.08386
 Alpha virt. eigenvalues --    2.08796   2.12753   2.16912   2.19722   2.21168
 Alpha virt. eigenvalues --    2.27262   2.27328   2.29147   2.32145   2.32663
 Alpha virt. eigenvalues --    2.33847   2.33897   2.36655   2.39139   2.41484
 Alpha virt. eigenvalues --    2.46750   2.49951   2.50094   2.51115   2.51383
 Alpha virt. eigenvalues --    2.55532   2.60111   2.62440   2.62729   2.66666
 Alpha virt. eigenvalues --    2.67052   2.67409   2.71415   2.71859   2.71957
 Alpha virt. eigenvalues --    2.72712   2.72876   2.73770   2.73891   2.76584
 Alpha virt. eigenvalues --    2.77773   2.77835   2.78367   2.78970   2.81687
 Alpha virt. eigenvalues --    2.82396   2.82622   2.82704   2.83602   2.86354
 Alpha virt. eigenvalues --    2.86536   2.86540   2.88265   2.89492   2.89954
 Alpha virt. eigenvalues --    2.90354   2.91288   2.93624   2.95941   2.97299
 Alpha virt. eigenvalues --    2.97603   2.98994   3.01038   3.09742   3.09983
 Alpha virt. eigenvalues --    3.10374   3.14355   3.23807   3.24028   3.24790
 Alpha virt. eigenvalues --    3.25547   3.28294   3.31686   3.36135   3.36337
 Alpha virt. eigenvalues --    3.37264   3.38819   3.39276   3.41809   3.42949
 Alpha virt. eigenvalues --    3.45363   3.56164   3.56791   3.57864   3.58593
 Alpha virt. eigenvalues --    3.60774   3.61564   3.65047   3.65155   3.75700
 Alpha virt. eigenvalues --    3.84734   3.88500   3.89122   4.04663   4.04841
 Alpha virt. eigenvalues --    4.07643   4.09941   4.10081   4.17766   4.19465
 Alpha virt. eigenvalues --    4.27386   4.36515   4.62140   4.85928   4.86071
 Alpha virt. eigenvalues --    5.09868   5.09979   5.29568   5.31000   5.81383
 Alpha virt. eigenvalues --    5.81572   8.06760   8.07631  17.37928  17.38795
 Alpha virt. eigenvalues --   17.61683  17.66451  17.67362  17.70682  23.57776
 Alpha virt. eigenvalues --   23.67706  23.71510  24.00730  24.02066  24.03522
 Alpha virt. eigenvalues --   24.03878  24.05454  24.05888  24.15700  24.16050
 Alpha virt. eigenvalues --   24.18940  24.19141  24.22175  24.27937  24.27942
 Alpha virt. eigenvalues --   50.18591  50.18722 189.43534 189.44277
          Condensed to atoms (all electrons):
               1          2          3          4          5          6
     1  H    0.480933   0.460138  -0.088971  -0.016505  -0.018586   0.001917
     2  C    0.460138   7.457276  -0.472914  -0.096502  -0.569224   0.004462
     3  C   -0.088971  -0.472914   9.009467   0.494063  -1.618528  -0.134566
     4  H   -0.016505  -0.096502   0.494063   0.478661  -0.129951  -0.012024
     5  C   -0.018586  -0.569224  -1.618528  -0.129951  11.731104   0.471173
     6  H    0.001917   0.004462  -0.134566  -0.012024   0.471173   0.471140
     7  C    0.049385   1.031057  -1.625703   0.005474  -2.905456   0.042862
     8  C    0.035055  -0.887079   2.354986   0.014677  -1.113007   0.159524
     9  C   -0.070510   0.312076  -0.959514  -0.001401   4.189103   0.093676
    10  H   -0.015751  -0.112069   0.008848   0.002796   0.047412   0.000990
    11  S   -0.012122  -0.242447   0.429057   0.003341   0.410998  -0.011065
    12  C   -0.010395  -0.318415  -0.610316   0.004950  -1.033996  -0.141171
    13  C   -0.011987  -0.152454   0.085252   0.024580  -3.608399  -0.158520
    14  O   -0.000294  -0.010644  -0.020976   0.001474   0.063016  -0.007446
    15  C   -0.000440  -0.090499  -0.177001   0.004790   0.202952  -0.006179
    16  C   -0.001654  -0.131655  -0.014415   0.002249   0.223579  -0.012827
    17  O   -0.000008   0.001402   0.000485  -0.000001  -0.002159   0.000044
    18  C    0.000186  -0.011558   0.003300   0.000102   0.047123   0.003015
    19  C    0.000024   0.000596   0.000371  -0.000012   0.008634   0.000234
    20  H   -0.000001  -0.000032   0.000016   0.000001   0.000234   0.000004
    21  C    0.000003  -0.000105  -0.000063  -0.000002   0.000371   0.000016
    22  H    0.000000   0.000003  -0.000002  -0.000000  -0.000012   0.000001
    23  C   -0.000002   0.000021  -0.000105   0.000003   0.000596  -0.000032
    24  H   -0.000000  -0.000002   0.000003   0.000000   0.000024  -0.000001
    25  C    0.000005  -0.000541   0.000998   0.000020   0.003226   0.000420
    26  H    0.000001   0.000062  -0.000061  -0.000003  -0.000495   0.000016
    27  C   -0.000009  -0.001804  -0.016002   0.000146   0.051834   0.000601
    28  S    0.000397   0.033810  -0.053049  -0.000912  -0.020785  -0.001820
               7          8          9         10         11         12
     1  H    0.049385   0.035055  -0.070510  -0.015751  -0.012122  -0.010395
     2  C    1.031057  -0.887079   0.312076  -0.112069  -0.242447  -0.318415
     3  C   -1.625703   2.354986  -0.959514   0.008848   0.429057  -0.610316
     4  H    0.005474   0.014677  -0.001401   0.002796   0.003341   0.004950
     5  C   -2.905456  -1.113007   4.189103   0.047412   0.410998  -1.033996
     6  H    0.042862   0.159524   0.093676   0.000990  -0.011065  -0.141171
     7  C   15.029492   1.465672  -3.486800  -0.012348  -1.150341  -2.719697
     8  C    1.465672  18.661436  -1.698716  -0.060683  -0.126189  -6.931006
     9  C   -3.486800  -1.698716  12.503343   0.459487   1.082703  -2.323955
    10  H   -0.012348  -0.060683   0.459487   0.478075  -0.025453  -0.000882
    11  S   -1.150341  -0.126189   1.082703  -0.025453  19.325851  -1.132877
    12  C   -2.719697  -6.931006  -2.323955  -0.000882  -1.132877  18.675730
    13  C    1.425833  -2.498058  -3.583825  -0.019312  -1.535192   2.496676
    14  O   -0.510217  -0.153346   0.012093   0.000853   0.045621   0.353921
    15  C   -1.013861  -0.747330   0.136147   0.011713   0.343947  -0.195674
    16  C   -0.557538  -2.548559  -0.151110   0.010702  -0.349774  -0.224979
    17  O   -0.004736   0.124744  -0.003703   0.001032   0.092517  -0.118787
    18  C    0.548343   0.212299   0.081225  -0.000367  -0.308616  -1.013854
    19  C    0.047122   0.051833   0.003226  -0.000495  -0.020785   0.202947
    20  H    0.003015   0.000601   0.000420   0.000016  -0.001820  -0.006179
    21  C    0.003300  -0.016002   0.000998  -0.000061  -0.053049  -0.177002
    22  H    0.000102   0.000146   0.000020  -0.000003  -0.000912   0.004790
    23  C   -0.011558  -0.001804  -0.000541   0.000062   0.033810  -0.090499
    24  H    0.000186  -0.000009   0.000005   0.000001   0.000397  -0.000440
    25  C    0.081225   0.032003  -0.006660  -0.000062  -0.093176   0.136147
    26  H   -0.000367   0.001070  -0.000062  -0.000004   0.001818   0.011713
    27  C    0.212302   0.142598   0.032003   0.001070   0.011171  -0.747328
    28  S   -0.308618   0.011169  -0.093176   0.001818   0.030016   0.343948
              13         14         15         16         17         18
     1  H   -0.011987  -0.000294  -0.000440  -0.001654  -0.000008   0.000186
     2  C   -0.152454  -0.010644  -0.090499  -0.131655   0.001402  -0.011558
     3  C    0.085252  -0.020976  -0.177001  -0.014415   0.000485   0.003300
     4  H    0.024580   0.001474   0.004790   0.002249  -0.000001   0.000102
     5  C   -3.608399   0.063016   0.202952   0.223579  -0.002159   0.047123
     6  H   -0.158520  -0.007446  -0.006179  -0.012827   0.000044   0.003015
     7  C    1.425833  -0.510217  -1.013861  -0.557538  -0.004736   0.548343
     8  C   -2.498058  -0.153346  -0.747330  -2.548559   0.124744   0.212299
     9  C   -3.583825   0.012093   0.136147  -0.151110  -0.003703   0.081225
    10  H   -0.019312   0.000853   0.011713   0.010702   0.001032  -0.000367
    11  S   -1.535192   0.045621   0.343947  -0.349774   0.092517  -0.308616
    12  C    2.496676   0.353921  -0.195674  -0.224979  -0.118787  -1.013854
    13  C   20.310572   0.139854  -0.224962  -3.577857   0.067474  -0.557534
    14  O    0.139854   8.117446  -0.118786   0.067475  -0.000919  -0.004736
    15  C   -0.224962  -0.118786  18.675728   2.496644   0.353921  -2.719675
    16  C   -3.577857   0.067475   2.496644  20.310594   0.139856   1.425849
    17  O    0.067474  -0.000919   0.353921   0.139856   8.117446  -0.510215
    18  C   -0.557534  -0.004736  -2.719675   1.425849  -0.510215  15.029471
    19  C    0.223573  -0.002159  -1.034000  -3.608389   0.063015  -2.905451
    20  H   -0.012827   0.000044  -0.141171  -0.158520  -0.007446   0.042862
    21  C   -0.014415   0.000485  -0.610316   0.085255  -0.020976  -1.625703
    22  H    0.002249  -0.000001   0.004950   0.024580   0.001474   0.005474
    23  C   -0.131655   0.001402  -0.318416  -0.152454  -0.010644   1.031057
    24  H   -0.001654  -0.000008  -0.010395  -0.011987  -0.000294   0.049385
    25  C   -0.151109  -0.003703  -2.323955  -3.583823   0.012093  -3.486812
    26  H    0.010702   0.001032  -0.000882  -0.019311   0.000853  -0.012348
    27  C   -2.548544   0.124744  -6.931004  -2.498052  -0.153345   1.465653
    28  S   -0.349776   0.092518  -1.132878  -1.535189   0.045621  -1.150345
              19         20         21         22         23         24
     1  H    0.000024  -0.000001   0.000003   0.000000  -0.000002  -0.000000
     2  C    0.000596  -0.000032  -0.000105   0.000003   0.000021  -0.000002
     3  C    0.000371   0.000016  -0.000063  -0.000002  -0.000105   0.000003
     4  H   -0.000012   0.000001  -0.000002  -0.000000   0.000003   0.000000
     5  C    0.008634   0.000234   0.000371  -0.000012   0.000596   0.000024
     6  H    0.000234   0.000004   0.000016   0.000001  -0.000032  -0.000001
     7  C    0.047122   0.003015   0.003300   0.000102  -0.011558   0.000186
     8  C    0.051833   0.000601  -0.016002   0.000146  -0.001804  -0.000009
     9  C    0.003226   0.000420   0.000998   0.000020  -0.000541   0.000005
    10  H   -0.000495   0.000016  -0.000061  -0.000003   0.000062   0.000001
    11  S   -0.020785  -0.001820  -0.053049  -0.000912   0.033810   0.000397
    12  C    0.202947  -0.006179  -0.177002   0.004790  -0.090499  -0.000440
    13  C    0.223573  -0.012827  -0.014415   0.002249  -0.131655  -0.001654
    14  O   -0.002159   0.000044   0.000485  -0.000001   0.001402  -0.000008
    15  C   -1.034000  -0.141171  -0.610316   0.004950  -0.318416  -0.010395
    16  C   -3.608389  -0.158520   0.085255   0.024580  -0.152454  -0.011987
    17  O    0.063015  -0.007446  -0.020976   0.001474  -0.010644  -0.000294
    18  C   -2.905451   0.042862  -1.625703   0.005474   1.031057   0.049385
    19  C   11.731081   0.471174  -1.618525  -0.129951  -0.569225  -0.018586
    20  H    0.471174   0.471140  -0.134566  -0.012024   0.004462   0.001917
    21  C   -1.618525  -0.134566   9.009468   0.494064  -0.472914  -0.088971
    22  H   -0.129951  -0.012024   0.494064   0.478661  -0.096502  -0.016505
    23  C   -0.569225   0.004462  -0.472914  -0.096502   7.457279   0.460138
    24  H   -0.018586   0.001917  -0.088971  -0.016505   0.460138   0.480933
    25  C    4.189099   0.093676  -0.959515  -0.001401   0.312075  -0.070509
    26  H    0.047411   0.000990   0.008848   0.002796  -0.112069  -0.015751
    27  C   -1.112979   0.159524   2.354980   0.014677  -0.887078   0.035055
    28  S    0.411000  -0.011065   0.429057   0.003341  -0.242446  -0.012122
              25         26         27         28
     1  H    0.000005   0.000001  -0.000009   0.000397
     2  C   -0.000541   0.000062  -0.001804   0.033810
     3  C    0.000998  -0.000061  -0.016002  -0.053049
     4  H    0.000020  -0.000003   0.000146  -0.000912
     5  C    0.003226  -0.000495   0.051834  -0.020785
     6  H    0.000420   0.000016   0.000601  -0.001820
     7  C    0.081225  -0.000367   0.212302  -0.308618
     8  C    0.032003   0.001070   0.142598   0.011169
     9  C   -0.006660  -0.000062   0.032003  -0.093176
    10  H   -0.000062  -0.000004   0.001070   0.001818
    11  S   -0.093176   0.001818   0.011171   0.030016
    12  C    0.136147   0.011713  -0.747328   0.343948
    13  C   -0.151109   0.010702  -2.548544  -0.349776
    14  O   -0.003703   0.001032   0.124744   0.092518
    15  C   -2.323955  -0.000882  -6.931004  -1.132878
    16  C   -3.583823  -0.019311  -2.498052  -1.535189
    17  O    0.012093   0.000853  -0.153345   0.045621
    18  C   -3.486812  -0.012348   1.465653  -1.150345
    19  C    4.189099   0.047411  -1.112979   0.411000
    20  H    0.093676   0.000990   0.159524  -0.011065
    21  C   -0.959515   0.008848   2.354980   0.429057
    22  H   -0.001401   0.002796   0.014677   0.003341
    23  C    0.312075  -0.112069  -0.887078  -0.242446
    24  H   -0.070509  -0.015751   0.035055  -0.012122
    25  C   12.503348   0.459487  -1.698709   1.082706
    26  H    0.459487   0.478075  -0.060682  -0.025453
    27  C   -1.698709  -0.060682  18.661391  -0.126191
    28  S    1.082706  -0.025453  -0.126191  19.325855
 Mulliken charges:
               1
     1  H    0.219190
     2  C   -0.202962
     3  C   -0.594662
     4  H    0.219984
     5  C   -0.430782
     6  H    0.235553
     7  C    0.361869
     8  C   -0.486022
     9  C   -0.526552
    10  H    0.222615
    11  S   -0.747431
    12  C    1.566630
    13  C    0.351315
    14  O   -0.188744
    15  C    1.566633
    16  C    0.351311
    17  O   -0.188744
    18  C    0.361871
    19  C   -0.430784
    20  H    0.235553
    21  C   -0.594662
    22  H    0.219984
    23  C   -0.202962
    24  H    0.219190
    25  C   -0.526552
    26  H    0.222614
    27  C   -0.486023
    28  S   -0.747432
 Sum of Mulliken charges =  -0.00000
 Mulliken charges with hydrogens summed into heavy atoms:
               1
     2  C    0.016228
     3  C   -0.374678
     5  C   -0.195229
     7  C    0.361869
     8  C   -0.486022
     9  C   -0.303937
    11  S   -0.747431
    12  C    1.566630
    13  C    0.351315
    14  O   -0.188744
    15  C    1.566633
    16  C    0.351311
    17  O   -0.188744
    18  C    0.361871
    19  C   -0.195230
    21  C   -0.374679
    23  C    0.016228
    25  C   -0.303937
    27  C   -0.486023
    28  S   -0.747432
 Electronic spatial extent (au):  <R**2>=           7395.1935
 Charge=             -0.0000 electrons
 Dipole moment (field-independent basis, Debye):
    X=             -0.0000    Y=              0.0000    Z=              0.0002  Tot=              0.0002
 Quadrupole moment (field-independent basis, Debye-Ang):
   XX=            -84.1692   YY=           -130.6717   ZZ=           -132.7190
   XY=              5.0438   XZ=              0.0015   YZ=              0.0001
 Traceless Quadrupole moment (field-independent basis, Debye-Ang):
   XX=             31.6841   YY=            -14.8184   ZZ=            -16.8657
   XY=              5.0438   XZ=              0.0015   YZ=              0.0001
 Octapole moment (field-independent basis, Debye-Ang**2):
  XXX=             -0.0000  YYY=              0.0000  ZZZ=             -0.0030  XYY=             -0.0000
  XXY=              0.0000  XXZ=              0.0210  XZZ=              0.0000  YZZ=              0.0000
  YYZ=              0.0023  XYZ=             -0.0002
 Hexadecapole moment (field-independent basis, Debye-Ang**3):
 XXXX=          -7047.6827 YYYY=          -1459.9320 ZZZZ=           -153.8623 XXXY=             18.8162
 XXXZ=              0.0938 YYYX=             39.2894 YYYZ=             -0.0585 ZZZX=              0.0016
 ZZZY=             -0.0565 XXYY=          -1469.6350 XXZZ=          -1638.0556 YYZZ=           -279.5677
 XXYZ=              0.0200 YYXZ=              0.0109 ZZXY=             -7.3668
 N-N= 1.648728628921D+03 E-N=-6.971608506306D+03  KE= 1.556587989151D+03
 No NMR shielding tensors so no spin-rotation constants.
 Leave Link  601 at Mon Apr  5 17:32:20 2021, MaxMem=  1342177280 cpu:               2.8 elap:               0.3
 (Enter /data/apps/g16_2/l602.exe)
 FitSet:  NAtFit=    28 NAtPot=    28 NAtFrz=     0 MDM=    32 TotChg=   0.00000
 Merz-Kollman atomic radii used.

 **********************************************************************

            Electrostatic Properties Using The SCF Density.

 **********************************************************************

       Atomic Center    1 is at   6.440064  1.039412  0.000626
       Atomic Center    2 is at   5.461440  0.568628  0.000403
       Atomic Center    3 is at   5.368879 -0.825655  0.000270
       Atomic Center    4 is at   6.272466 -1.426251  0.000384
       Atomic Center    5 is at   4.124627 -1.437039 -0.000011
       Atomic Center    6 is at   4.019357 -2.517646 -0.000130
       Atomic Center    7 is at   2.982873 -0.640682 -0.000172
       Atomic Center    8 is at   3.082578  0.750904 -0.000020
       Atomic Center    9 is at   4.325436  1.371045  0.000263
       Atomic Center   10 is at   4.412543  2.453001  0.000380
       Atomic Center   11 is at   1.524547  1.593851 -0.000193
       Atomic Center   12 is at   0.672908  0.068670 -0.000231
       Atomic Center   13 is at   1.593823 -1.104736 -0.000518
       Atomic Center   14 is at   1.194117 -2.252742 -0.000351
       Atomic Center   15 is at  -0.672907 -0.068670 -0.000090
       Atomic Center   16 is at  -1.593823  1.104736  0.000168
       Atomic Center   17 is at  -1.194117  2.252742  0.000234
       Atomic Center   18 is at  -2.982873  0.640682  0.000145
       Atomic Center   19 is at  -4.124627  1.437039  0.000266
       Atomic Center   20 is at  -4.019358  2.517646  0.000385
       Atomic Center   21 is at  -5.368879  0.825655  0.000236
       Atomic Center   22 is at  -6.272466  1.426251  0.000332
       Atomic Center   23 is at  -5.461440 -0.568628  0.000085
       Atomic Center   24 is at  -6.440064 -1.039413  0.000063
       Atomic Center   25 is at  -4.325436 -1.371045 -0.000038
       Atomic Center   26 is at  -4.412542 -2.453001 -0.000155
       Atomic Center   27 is at  -3.082578 -0.750904 -0.000007
       Atomic Center   28 is at  -1.524547 -1.593851 -0.000147
    1277 points will be used for fitting atomic charges
 Fitting point charges to electrostatic potential
 The dipole moment will be constrained to the correct value
 Charges from ESP fit, RMS=   0.00190 RRMS=   0.13469:
 ESP charges:
               1
     1  H    0.164133
     2  C   -0.170661
     3  C   -0.145369
     4  H    0.152051
     5  C   -0.103387
     6  H    0.132231
     7  C   -0.005165
     8  C    0.092577
     9  C   -0.207795
    10  H    0.209251
    11  S   -0.104709
    12  C    0.082925
    13  C    0.313792
    14  O   -0.368026
    15  C   -0.160722
    16  C    0.647018
    17  O   -0.452048
    18  C   -0.312356
    19  C   -0.001810
    20  H    0.124232
    21  C   -0.181161
    22  H    0.149286
    23  C   -0.085645
    24  H    0.145332
    25  C   -0.283939
    26  H    0.207849
    27  C    0.220206
    28  S   -0.058091
 Sum of ESP charges =  -0.00000
 ESP charges with hydrogens summed into heavy atoms:
               1
     2  C   -0.006527
     3  C    0.006681
     5  C    0.028845
     7  C   -0.005165
     8  C    0.092577
     9  C    0.001456
    11  S   -0.104709
    12  C    0.082925
    13  C    0.313792
    14  O   -0.368026
    15  C   -0.160722
    16  C    0.647018
    17  O   -0.452048
    18  C   -0.312356
    19  C    0.122422
    21  C   -0.031874
    23  C    0.059686
    25  C   -0.076090
    27  C    0.220206
    28  S   -0.058091
 Charge=  -0.00000 Dipole=    -0.0000     0.0000     0.0002 Tot=     0.0002
 -----------------------------------------------------------------

              Electrostatic Properties (Atomic Units)

 -----------------------------------------------------------------
    Center     Electric         -------- Electric Field --------
               Potential          X             Y             Z
 -----------------------------------------------------------------
    1 Atom     -1.081010
    2 Atom    -14.739183
    3 Atom    -14.747839
    4 Atom     -1.085473
    5 Atom    -14.740768
    6 Atom     -1.082247
    7 Atom    -14.743097
    8 Atom    -14.711026
    9 Atom    -14.740757
   10 Atom     -1.076556
   11 Atom    -59.198052
   12 Atom    -14.703454
   13 Atom    -14.666503
   14 Atom    -22.353215
   15 Atom    -14.703454
   16 Atom    -14.666503
   17 Atom    -22.353215
   18 Atom    -14.743097
   19 Atom    -14.740768
   20 Atom     -1.082247
   21 Atom    -14.747839
   22 Atom     -1.085473
   23 Atom    -14.739183
   24 Atom     -1.081010
   25 Atom    -14.740757
   26 Atom     -1.076556
   27 Atom    -14.711026
   28 Atom    -59.198052
 -----------------------------------------------------------------
 Leave Link  602 at Mon Apr  5 17:32:21 2021, MaxMem=  1342177280 cpu:               2.2 elap:               0.2
 (Enter /data/apps/g16_2/l9999.exe)
 1\1\GINC-NODE1\SP\RPBE1PBE\6-311++G(d,p)\C16H8O2S2\MDABRAMO\05-Apr-202
 1\0\\#P pbe1pbe/6-311++G** Pop=(MK,dipole) Density=Current\\thioindigo
 \\0,1\H,0,-6.440064,-1.039412,0.000626\C,0,-5.46144,-0.568628,0.000403
 \C,0,-5.368879,0.825655,0.00027\H,0,-6.272466,1.426251,0.000384\C,0,-4
 .124627,1.437039,-0.000011\H,0,-4.019357,2.517646,-0.00013\C,0,-2.9828
 73,0.640682,-0.000172\C,0,-3.082578,-0.750904,-0.00002\C,0,-4.325436,-
 1.371045,0.000263\H,0,-4.412543,-2.453001,0.00038\S,0,-1.524547,-1.593
 851,-0.000193\C,0,-0.672908,-0.06867,-0.000231\C,0,-1.593823,1.104736,
 -0.000518\O,0,-1.194117,2.252742,-0.000351\C,0,0.672907,0.06867,-0.000
 09\C,0,1.593823,-1.104736,0.000168\O,0,1.194117,-2.252742,0.000234\C,0
 ,2.982873,-0.640682,0.000145\C,0,4.124627,-1.437039,0.000266\H,0,4.019
 358,-2.517646,0.000385\C,0,5.368879,-0.825655,0.000236\H,0,6.272466,-1
 .426251,0.000332\C,0,5.46144,0.568628,0.000085\H,0,6.440064,1.039413,0
 .000063\C,0,4.325436,1.371045,-0.000038\H,0,4.412542,2.453001,-0.00015
 5\C,0,3.082578,0.750904,-0.000007\S,0,1.524547,1.593851,-0.000147\\Ver
 sion=ES64L-G16RevB.01\State=1-A\HF=-1560.415348\RMSD=4.127e-09\Dipole=
 0.0000009,-0.0000007,0.00008\Quadrupole=23.5563678,-11.0171342,-12.539
 2336,3.7499074,-0.0011374,-0.0000944\PG=C01 [X(C16H8O2S2)]\\@


 CHILDREN YOU ARE VERY LITTLE,
 AND YOUR BONES ARE VERY BRITTLE;
 IF YOU WOULD GROW GREAT AND STATELY
 YOU MUST TRY TO WALK SEDATELY.
 YOU MUST STILL BE BRIGHT AND QUIET,
 AND CONTENT WITH SIMPLE DIET;
 AND REMAIN, THROUGH ALL BEWILD'RING
 INNOCENT AND HONEST CHILDREN.
     -- A CHILD'S GARDEN OF VERSE,
        ROBERT LOUIS STEVENSON
 Job cpu time:       0 days  0 hours 29 minutes 43.0 seconds.
 Elapsed time:       0 days  0 hours  2 minutes 28.9 seconds.
 File lengths (MBytes):  RWF=    142 Int=      0 D2E=      0 Chk=     16 Scr=      1
 Normal termination of Gaussian 16 at Mon Apr  5 17:32:21 2021.
