 Entering Gaussian System, Link 0=/data/apps/g16_2/g16
 Input=thio_pbe0_esp1_x180.com
 Output=thio_pbe0_esp1_x180.log
 Initial command:
 /data/apps/g16_2/l1.exe "/data/home/mdabramo/giuseppe/photoswitch/thioindigo/thio_pbe0_esp/Gau-6188.inp" -scrdir="/data/home/mdabramo/giuseppe/photoswitch/thioindigo/thio_pbe0_esp/"
 Entering Link 1 = /data/apps/g16_2/l1.exe PID=      6190.
  
 Copyright (c) 1988-2017, Gaussian, Inc.  All Rights Reserved.
  
 This is part of the Gaussian(R) 16 program.  It is based on
 the Gaussian(R) 09 system (copyright 2009, Gaussian, Inc.),
 the Gaussian(R) 03 system (copyright 2003, Gaussian, Inc.),
 the Gaussian(R) 98 system (copyright 1998, Gaussian, Inc.),
 the Gaussian(R) 94 system (copyright 1995, Gaussian, Inc.),
 the Gaussian 92(TM) system (copyright 1992, Gaussian, Inc.),
 the Gaussian 90(TM) system (copyright 1990, Gaussian, Inc.),
 the Gaussian 88(TM) system (copyright 1988, Gaussian, Inc.),
 the Gaussian 86(TM) system (copyright 1986, Carnegie Mellon
 University), and the Gaussian 82(TM) system (copyright 1983,
 Carnegie Mellon University). Gaussian is a federally registered
 trademark of Gaussian, Inc.
  
 This software contains proprietary and confidential information,
 including trade secrets, belonging to Gaussian, Inc.
  
 This software is provided under written license and may be
 used, copied, transmitted, or stored only in accord with that
 written license.
  
 The following legend is applicable only to US Government
 contracts under FAR:
  
                    RESTRICTED RIGHTS LEGEND
  
 Use, reproduction and disclosure by the US Government is
 subject to restrictions as set forth in subparagraphs (a)
 and (c) of the Commercial Computer Software - Restricted
 Rights clause in FAR 52.227-19.
  
 Gaussian, Inc.
 340 Quinnipiac St., Bldg. 40, Wallingford CT 06492
  
  
 ---------------------------------------------------------------
 Warning -- This program may not be used in any manner that
 competes with the business of Gaussian, Inc. or will provide
 assistance to any competitor of Gaussian, Inc.  The licensee
 of this program is prohibited from giving any competitor of
 Gaussian, Inc. access to this program.  By using this program,
 the user acknowledges that Gaussian, Inc. is engaged in the
 business of creating and licensing software in the field of
 computational chemistry and represents and warrants to the
 licensee that it is not a competitor of Gaussian, Inc. and that
 it will not use this program in any manner prohibited above.
 ---------------------------------------------------------------
  

 Cite this work as:
 Gaussian 16, Revision B.01,
 M. J. Frisch, G. W. Trucks, H. B. Schlegel, G. E. Scuseria, 
 M. A. Robb, J. R. Cheeseman, G. Scalmani, V. Barone, 
 G. A. Petersson, H. Nakatsuji, X. Li, M. Caricato, A. V. Marenich, 
 J. Bloino, B. G. Janesko, R. Gomperts, B. Mennucci, H. P. Hratchian, 
 J. V. Ortiz, A. F. Izmaylov, J. L. Sonnenberg, D. Williams-Young, 
 F. Ding, F. Lipparini, F. Egidi, J. Goings, B. Peng, A. Petrone, 
 T. Henderson, D. Ranasinghe, V. G. Zakrzewski, J. Gao, N. Rega, 
 G. Zheng, W. Liang, M. Hada, M. Ehara, K. Toyota, R. Fukuda, 
 J. Hasegawa, M. Ishida, T. Nakajima, Y. Honda, O. Kitao, H. Nakai, 
 T. Vreven, K. Throssell, J. A. Montgomery, Jr., J. E. Peralta, 
 F. Ogliaro, M. J. Bearpark, J. J. Heyd, E. N. Brothers, K. N. Kudin, 
 V. N. Staroverov, T. A. Keith, R. Kobayashi, J. Normand, 
 K. Raghavachari, A. P. Rendell, J. C. Burant, S. S. Iyengar, 
 J. Tomasi, M. Cossi, J. M. Millam, M. Klene, C. Adamo, R. Cammi, 
 J. W. Ochterski, R. L. Martin, K. Morokuma, O. Farkas, 
 J. B. Foresman, and D. J. Fox, Gaussian, Inc., Wallingford CT, 2016.
 
 ******************************************
 Gaussian 16:  ES64L-G16RevB.01 20-Dec-2017
                 5-Apr-2021 
 ******************************************
 %NProcShared=12
 Will use up to   12 processors via shared memory.
 %mem=10GB
 %Chk=thio_pbe0_esp1_x180.chk
 ----------------------------------------------------------------------
 #P pbe1pbe/6-311++G** TD=(NStates=15,Root=1) Pop=(MK,dipole) Density=C
 urrent
 ----------------------------------------------------------------------
 1/30=1,38=1,172=1/1;
 2/12=2,17=6,18=5,40=1/2;
 3/5=4,6=6,7=1111,11=9,25=1,30=1,71=1,74=-13/1,2,3,8;
 4//1;
 5/5=2,38=5/2;
 8/6=1,10=2,107=1,108=15/1;
 9/8=1,15=1,41=15,42=1,70=2/14;
 10/5=4,13=10,28=1/2;
 6/7=2,8=2,9=2,10=2,15=24,20=1,22=-1/1,2;
 99/5=1,9=1/99;
 Leave Link    1 at Mon Apr  5 23:29:18 2021, MaxMem=  1342177280 cpu:               1.4 elap:               0.2
 (Enter /data/apps/g16_2/l101.exe)
 ----------
 thioindigo
 ----------
 Symbolic Z-matrix:
 Charge =  0 Multiplicity = 1
 H                    -6.44006  -1.03941   0.00063 
 C                    -5.46144  -0.56863   0.0004 
 C                    -5.36888   0.82566   0.00027 
 H                    -6.27247   1.42625   0.00038 
 C                    -4.12463   1.43704  -0.00001 
 H                    -4.01936   2.51765  -0.00013 
 C                    -2.98287   0.64068  -0.00017 
 C                    -3.08258  -0.7509   -0.00002 
 C                    -4.32544  -1.37105   0.00026 
 H                    -4.41254  -2.453     0.00038 
 S                    -1.52455  -1.59385  -0.00019 
 C                    -0.67291  -0.06867  -0.00023 
 C                    -1.59382   1.10474  -0.00052 
 O                    -1.19412   2.25274  -0.00035 
 C                     0.67291   0.06867  -0.00009 
 C                     1.59382  -1.10474   0.00017 
 O                     1.19412  -2.25274   0.00023 
 C                     2.98287  -0.64068   0.00015 
 C                     4.12463  -1.43704   0.00027 
 H                     4.01936  -2.51765   0.00039 
 C                     5.36888  -0.82566   0.00024 
 H                     6.27247  -1.42625   0.00033 
 C                     5.46144   0.56863   0.00009 
 H                     6.44006   1.03941   0.00006 
 C                     4.32544   1.37105  -0.00004 
 H                     4.41254   2.453    -0.00016 
 C                     3.08258   0.7509   -0.00001 
 S                     1.52455   1.59385  -0.00015 
 
 ITRead=  0  0  0  0  0  0  0  0  0  0  0  0  0  0  0  0  0  0  0  0
 ITRead=  0  0  0  0  0  0  0  0
 MicOpt= -1 -1 -1 -1 -1 -1 -1 -1 -1 -1 -1 -1 -1 -1 -1 -1 -1 -1 -1 -1
 MicOpt= -1 -1 -1 -1 -1 -1 -1 -1
 NAtoms=     28 NQM=       28 NQMF=       0 NMMI=      0 NMMIF=      0
                NMic=       0 NMicF=      0.
                    Isotopes and Nuclear Properties:
 (Nuclear quadrupole moments (NQMom) in fm**2, nuclear magnetic moments (NMagM)
  in nuclear magnetons)

  Atom         1           2           3           4           5           6           7           8           9          10
 IAtWgt=           1          12          12           1          12           1          12          12          12           1
 AtmWgt=   1.0078250  12.0000000  12.0000000   1.0078250  12.0000000   1.0078250  12.0000000  12.0000000  12.0000000   1.0078250
 NucSpn=           1           0           0           1           0           1           0           0           0           1
 AtZEff=  -0.0000000  -0.0000000  -0.0000000  -0.0000000  -0.0000000  -0.0000000  -0.0000000  -0.0000000  -0.0000000  -0.0000000
 NQMom=    0.0000000   0.0000000   0.0000000   0.0000000   0.0000000   0.0000000   0.0000000   0.0000000   0.0000000   0.0000000
 NMagM=    2.7928460   0.0000000   0.0000000   2.7928460   0.0000000   2.7928460   0.0000000   0.0000000   0.0000000   2.7928460
 AtZNuc=   1.0000000   6.0000000   6.0000000   1.0000000   6.0000000   1.0000000   6.0000000   6.0000000   6.0000000   1.0000000

  Atom        11          12          13          14          15          16          17          18          19          20
 IAtWgt=          32          12          12          16          12          12          16          12          12           1
 AtmWgt=  31.9720718  12.0000000  12.0000000  15.9949146  12.0000000  12.0000000  15.9949146  12.0000000  12.0000000   1.0078250
 NucSpn=           0           0           0           0           0           0           0           0           0           1
 AtZEff=  -0.0000000  -0.0000000  -0.0000000  -0.0000000  -0.0000000  -0.0000000  -0.0000000  -0.0000000  -0.0000000  -0.0000000
 NQMom=    0.0000000   0.0000000   0.0000000   0.0000000   0.0000000   0.0000000   0.0000000   0.0000000   0.0000000   0.0000000
 NMagM=    0.0000000   0.0000000   0.0000000   0.0000000   0.0000000   0.0000000   0.0000000   0.0000000   0.0000000   2.7928460
 AtZNuc=  16.0000000   6.0000000   6.0000000   8.0000000   6.0000000   6.0000000   8.0000000   6.0000000   6.0000000   1.0000000

  Atom        21          22          23          24          25          26          27          28
 IAtWgt=          12           1          12           1          12           1          12          32
 AtmWgt=  12.0000000   1.0078250  12.0000000   1.0078250  12.0000000   1.0078250  12.0000000  31.9720718
 NucSpn=           0           1           0           1           0           1           0           0
 AtZEff=  -0.0000000  -0.0000000  -0.0000000  -0.0000000  -0.0000000  -0.0000000  -0.0000000  -0.0000000
 NQMom=    0.0000000   0.0000000   0.0000000   0.0000000   0.0000000   0.0000000   0.0000000   0.0000000
 NMagM=    0.0000000   2.7928460   0.0000000   2.7928460   0.0000000   2.7928460   0.0000000   0.0000000
 AtZNuc=   6.0000000   1.0000000   6.0000000   1.0000000   6.0000000   1.0000000   6.0000000  16.0000000
 Leave Link  101 at Mon Apr  5 23:29:19 2021, MaxMem=  1342177280 cpu:               3.1 elap:               0.3
 (Enter /data/apps/g16_2/l202.exe)
                          Input orientation:                          
 ---------------------------------------------------------------------
 Center     Atomic      Atomic             Coordinates (Angstroms)
 Number     Number       Type             X           Y           Z
 ---------------------------------------------------------------------
      1          1           0       -6.440064   -1.039412    0.000626
      2          6           0       -5.461440   -0.568628    0.000403
      3          6           0       -5.368879    0.825655    0.000270
      4          1           0       -6.272466    1.426251    0.000384
      5          6           0       -4.124627    1.437039   -0.000011
      6          1           0       -4.019357    2.517646   -0.000130
      7          6           0       -2.982873    0.640682   -0.000172
      8          6           0       -3.082578   -0.750904   -0.000020
      9          6           0       -4.325436   -1.371045    0.000263
     10          1           0       -4.412543   -2.453001    0.000380
     11         16           0       -1.524547   -1.593851   -0.000193
     12          6           0       -0.672908   -0.068670   -0.000231
     13          6           0       -1.593823    1.104736   -0.000518
     14          8           0       -1.194117    2.252742   -0.000351
     15          6           0        0.672907    0.068670   -0.000090
     16          6           0        1.593823   -1.104736    0.000168
     17          8           0        1.194117   -2.252742    0.000234
     18          6           0        2.982873   -0.640682    0.000145
     19          6           0        4.124627   -1.437039    0.000266
     20          1           0        4.019358   -2.517646    0.000385
     21          6           0        5.368879   -0.825655    0.000236
     22          1           0        6.272466   -1.426251    0.000332
     23          6           0        5.461440    0.568628    0.000085
     24          1           0        6.440064    1.039413    0.000063
     25          6           0        4.325436    1.371045   -0.000038
     26          1           0        4.412542    2.453001   -0.000155
     27          6           0        3.082578    0.750904   -0.000007
     28         16           0        1.524547    1.593851   -0.000147
 ---------------------------------------------------------------------
                    Distance matrix (angstroms):
                    1          2          3          4          5
     1  H    0.000000
     2  C    1.085975   0.000000
     3  C    2.150793   1.397352   0.000000
     4  H    2.471352   2.153440   1.084982   0.000000
     5  C    3.390289   2.410346   1.386345   2.147866   0.000000
     6  H    4.302614   3.406566   2.164265   2.503526   1.085722
     7  C    3.843811   2.757848   2.393165   3.382091   1.392044
     8  C    3.369859   2.385835   2.777177   3.862045   2.423419
     9  C    2.140475   1.390819   2.431926   3.408195   2.815255
    10  H    2.471654   2.156629   3.415284   4.302082   3.900680
    11  S    4.946687   4.068195   4.542345   5.627055   3.993333
    12  C    5.848284   4.814561   4.780372   5.795674   3.765836
    13  C    5.299380   4.214096   3.785358   4.689677   2.552527
    14  O    6.193403   5.115679   4.411940   5.145164   3.041917
    15  C    7.198764   6.167363   6.089023   7.076809   4.988864
    16  C    8.034153   7.075602   7.225346   8.263437   6.257898
    17  O    7.729999   6.865324   7.249100   8.323752   6.473293
    18  C    9.431369   8.444620   8.479499   9.483328   7.404963
    19  C   10.572171   9.625322   9.759428  10.784154   8.735589
    20  H   10.563365   9.679060   9.965774  11.021614   9.053399
    21  C   11.810877  10.833368  10.863990  11.857149   9.759428
    22  H   12.718414  11.765206  11.857149  12.865150  10.784154
    23  C   12.009646  10.981924  10.833368  11.765206   9.625322
    24  H   13.046808  12.009646  11.810877  12.718414  10.572171
    25  C   11.032058   9.977238   9.709644  10.598046   8.450321
    26  H   11.400702  10.325975   9.915869  10.734226   8.597409
    27  C    9.689476   8.645311   8.451788   9.379389   7.239792
    28  S    8.388629   7.313025   6.936097   7.798814   5.651350
                    6          7          8          9         10
     6  H    0.000000
     7  C    2.144130   0.000000
     8  C    3.400143   1.395153   0.000000
     9  C    3.900718   2.418578   1.388982   0.000000
    10  H    4.986174   3.408054   2.160079   1.085457   0.000000
    11  S    4.809208   2.668305   1.771446   2.809737   3.013081
    12  C    4.229391   2.416427   2.504387   3.877775   4.435077
    13  C    2.807050   1.464516   2.379032   3.686625   4.539017
    14  O    2.837632   2.407984   3.547982   4.789258   5.701077
    15  C    5.292903   3.700260   3.843874   5.201559   5.676322
    16  C    6.680527   4.898227   4.689768   5.925247   6.155831
    17  O    7.066605   5.081255   4.532730   5.589531   5.610235
    18  C    7.681553   6.101805   6.066452   7.344713   7.614242
    19  C    9.053398   7.404963   7.239792   8.450321   8.597410
    20  H    9.485521   7.681554   7.318393   8.423199   8.432149
    21  C    9.965773   8.479499   8.451788   9.709644   9.915870
    22  H   11.021613   9.483328   9.379389  10.598046  10.734227
    23  C    9.679059   8.444620   8.645311   9.977238  10.325976
    24  H   10.563364   9.431369   9.689476  11.032058  11.400703
    25  C    8.423198   7.344713   7.705929   9.075056   9.538113
    26  H    8.432147   7.614241   8.151186   9.538112  10.097078
    27  C    7.318392   6.066452   6.345437   7.705929   8.151187
    28  S    5.620344   4.607100   5.169475   6.558423   7.185127
                   11         12         13         14         15
    11  S    0.000000
    12  C    1.746845   0.000000
    13  C    2.699476   1.491632   0.000000
    14  O    3.860759   2.379204   1.215600   0.000000
    15  C    2.755500   1.352805   2.492288   2.873317   0.000000
    16  C    3.156496   2.492289   3.878512   4.364088   1.491633
    17  O    2.797369   2.873317   4.364089   5.099318   2.379204
    18  C    4.607100   3.700261   4.898227   5.081255   2.416428
    19  C    5.651350   4.988865   6.257898   6.473293   3.765837
    20  H    5.620345   5.292905   6.680528   7.066606   4.229393
    21  C    6.936097   6.089024   7.225346   7.249100   4.780373
    22  H    7.798814   7.076810   8.263437   8.323752   5.795675
    23  C    7.313025   6.167364   7.075602   6.865324   4.814562
    24  H    8.388630   7.198765   8.034153   7.729999   5.848285
    25  C    6.558423   5.201560   5.925247   5.589531   3.877776
    26  H    7.185126   5.676322   6.155830   5.610234   4.435077
    27  C    5.169475   3.843875   4.689768   4.532730   2.504388
    28  S    4.411170   2.755501   3.156496   2.797369   1.746845
                   16         17         18         19         20
    16  C    0.000000
    17  O    1.215600   0.000000
    18  C    1.464516   2.407984   0.000000
    19  C    2.552527   3.041917   1.392044   0.000000
    20  H    2.807051   2.837633   2.144130   1.085722   0.000000
    21  C    3.785358   4.411940   2.393165   1.386345   2.164264
    22  H    4.689677   5.145164   3.382091   2.147866   2.503525
    23  C    4.214096   5.115679   2.757848   2.410346   3.406565
    24  H    5.299380   6.193403   3.843812   3.390290   4.302614
    25  C    3.686625   4.789258   2.418578   2.815255   3.900718
    26  H    4.539016   5.701077   3.408053   3.900680   4.986173
    27  C    2.379032   3.547982   1.395153   2.423419   3.400144
    28  S    2.699476   3.860759   2.668305   3.993333   4.809209
                   21         22         23         24         25
    21  C    0.000000
    22  H    1.084982   0.000000
    23  C    1.397352   2.153440   0.000000
    24  H    2.150794   2.471354   1.085976   0.000000
    25  C    2.431926   3.408195   1.390819   2.140475   0.000000
    26  H    3.415284   4.302082   2.156629   2.471655   1.085457
    27  C    2.777177   3.862045   2.385835   3.369859   1.388982
    28  S    4.542345   5.627055   4.068195   4.946687   2.809737
                   26         27         28
    26  H    0.000000
    27  C    2.160078   0.000000
    28  S    3.013080   1.771446   0.000000
 Stoichiometry    C16H8O2S2
 Framework group  C1[X(C16H8O2S2)]
 Deg. of freedom    78
 Full point group                 C1      NOp   1
 Largest Abelian subgroup         C1      NOp   1
 Largest concise Abelian subgroup C1      NOp   1
                         Standard orientation:                         
 ---------------------------------------------------------------------
 Center     Atomic      Atomic             Coordinates (Angstroms)
 Number     Number       Type             X           Y           Z
 ---------------------------------------------------------------------
      1          1           0        6.440064    1.039412    0.000626
      2          6           0        5.461440    0.568628    0.000403
      3          6           0        5.368879   -0.825655    0.000270
      4          1           0        6.272466   -1.426251    0.000384
      5          6           0        4.124627   -1.437039   -0.000011
      6          1           0        4.019357   -2.517646   -0.000130
      7          6           0        2.982873   -0.640682   -0.000172
      8          6           0        3.082578    0.750904   -0.000020
      9          6           0        4.325436    1.371045    0.000263
     10          1           0        4.412543    2.453001    0.000380
     11         16           0        1.524547    1.593851   -0.000193
     12          6           0        0.672908    0.068670   -0.000231
     13          6           0        1.593823   -1.104736   -0.000518
     14          8           0        1.194117   -2.252742   -0.000351
     15          6           0       -0.672907   -0.068670   -0.000090
     16          6           0       -1.593823    1.104736    0.000168
     17          8           0       -1.194117    2.252742    0.000234
     18          6           0       -2.982873    0.640682    0.000145
     19          6           0       -4.124627    1.437039    0.000266
     20          1           0       -4.019358    2.517646    0.000385
     21          6           0       -5.368879    0.825655    0.000236
     22          1           0       -6.272466    1.426251    0.000332
     23          6           0       -5.461440   -0.568628    0.000085
     24          1           0       -6.440064   -1.039413    0.000063
     25          6           0       -4.325436   -1.371045   -0.000038
     26          1           0       -4.412542   -2.453001   -0.000155
     27          6           0       -3.082578   -0.750904   -0.000007
     28         16           0       -1.524547   -1.593851   -0.000147
 ---------------------------------------------------------------------
 Rotational constants (GHZ):           0.9579751           0.1575686           0.1353123
 Leave Link  202 at Mon Apr  5 23:29:19 2021, MaxMem=  1342177280 cpu:               0.1 elap:               0.0
 (Enter /data/apps/g16_2/l301.exe)
 Standard basis: 6-311++G(d,p) (5D, 7F)
 Ernie: Thresh=  0.10000D-02 Tol=  0.10000D-05 Strict=F.
 There are   532 symmetry adapted cartesian basis functions of A   symmetry.
 There are   512 symmetry adapted basis functions of A   symmetry.
   512 basis functions,   820 primitive gaussians,   532 cartesian basis functions
    76 alpha electrons       76 beta electrons
       nuclear repulsion energy      1648.7286289211 Hartrees.
 IExCor= 1009 DFT=T Ex+Corr=PBE1PBE ExCW=0 ScaHFX=  0.250000
 ScaDFX=  0.750000  0.750000  1.000000  1.000000 ScalE2=  1.000000  1.000000
 IRadAn=      5 IRanWt=     -1 IRanGd=            0 ICorTp=0 IEmpDi=  4
 NAtoms=   28 NActive=   28 NUniq=   28 SFac= 1.00D+00 NAtFMM=   60 NAOKFM=F Big=F
 Integral buffers will be    131072 words long.
 Regular integral format.
 Two-electron integral symmetry is turned on.
 Leave Link  301 at Mon Apr  5 23:29:19 2021, MaxMem=  1342177280 cpu:               0.8 elap:               0.1
 (Enter /data/apps/g16_2/l302.exe)
 NPDir=0 NMtPBC=     1 NCelOv=     1 NCel=       1 NClECP=     1 NCelD=      1
         NCelK=      1 NCelE2=     1 NClLst=     1 CellRange=     0.0.
 One-electron integrals computed using PRISM.
 One-electron integral symmetry used in STVInt
 NBasis=   512 RedAO= T EigKep=  2.24D-06  NBF=   512
 NBsUse=   505 1.00D-06 EigRej=  9.33D-07 NBFU=   505
 Precomputing XC quadrature grid using
 IXCGrd= 4 IRadAn=           5 IRanWt=          -1 IRanGd=           0 AccXCQ= 0.00D+00.
 Generated NRdTot=       0 NPtTot=           0 NUsed=           0 NTot=          32
 NSgBfM=   517   517   517   517   517 MxSgAt=    28 MxSgA2=    28.
 Leave Link  302 at Mon Apr  5 23:29:20 2021, MaxMem=  1342177280 cpu:               6.6 elap:               0.6
 (Enter /data/apps/g16_2/l303.exe)
 DipDrv:  MaxL=1.
 Leave Link  303 at Mon Apr  5 23:29:20 2021, MaxMem=  1342177280 cpu:               1.0 elap:               0.1
 (Enter /data/apps/g16_2/l308.exe)
 Leave Link  308 at Mon Apr  5 23:29:20 2021, MaxMem=  1342177280 cpu:               1.5 elap:               0.2
 (Enter /data/apps/g16_2/l401.exe)
 ExpMin= 3.60D-02 ExpMax= 9.34D+04 ExpMxC= 3.17D+03 IAcc=3 IRadAn=         5 AccDes= 0.00D+00
 Harris functional with IExCor= 1009 and IRadAn=       5 diagonalized for initial guess.
 HarFok:  IExCor= 1009 AccDes= 0.00D+00 IRadAn=         5 IDoV= 1 UseB2=F ITyADJ=14
 ICtDFT=  3500011 ScaDFX=  1.000000  1.000000  1.000000  1.000000
 FoFCou: FMM=F IPFlag=           0 FMFlag=      100000 FMFlg1=           0
         NFxFlg=           0 DoJE=T BraDBF=F KetDBF=T FulRan=T
         wScrn=  0.000000 ICntrl=       500 IOpCl=  0 I1Cent=   200000004 NGrid=           0
         NMat0=    1 NMatS0=      1 NMatT0=    0 NMatD0=    1 NMtDS0=    0 NMtDT0=    0
 Petite list used in FoFCou.
 Harris En= -1560.48992205377    
 JPrj=0 DoOrth=F DoCkMO=F.
 Leave Link  401 at Mon Apr  5 23:29:23 2021, MaxMem=  1342177280 cpu:              22.9 elap:               1.9
 (Enter /data/apps/g16_2/l502.exe)
 Integral symmetry usage will be decided dynamically.
 Closed shell SCF:
 Using DIIS extrapolation, IDIIS=  1040.
 NGot=  1342177280 LenX=  1341599992 LenY=  1341316436
 Requested convergence on RMS density matrix=1.00D-08 within 128 cycles.
 Requested convergence on MAX density matrix=1.00D-06.
 Requested convergence on             energy=1.00D-06.
 No special actions if energy rises.
 Fock matrices will be formed incrementally for  20 cycles.

 Cycle   1  Pass 1  IDiag  1:
 FoFJK:  IHMeth= 1 ICntrl=       0 DoSepK=F KAlg= 0 I1Cent=           0 FoldK=F
 IRaf= 790000000 NMat=       1 IRICut=       1 DoRegI=T DoRafI=F ISym2E= 0 IDoP0=0 IntGTp=1.
 FoFCou: FMM=F IPFlag=           0 FMFlag=      100000 FMFlg1=           0
         NFxFlg=           0 DoJE=F BraDBF=F KetDBF=F FulRan=T
         wScrn=  0.000000 ICntrl=         0 IOpCl=  0 I1Cent=           0 NGrid=           0
         NMat0=    1 NMatS0=      1 NMatT0=    0 NMatD0=    1 NMtDS0=    0 NMtDT0=    0
 Symmetry not used in FoFCou.
 E= -1559.91353699084    
 DIIS: error= 4.09D-02 at cycle   1 NSaved=   1.
 NSaved= 1 IEnMin= 1 EnMin= -1559.91353699084     IErMin= 1 ErrMin= 4.09D-02
 ErrMax= 4.09D-02  0.00D+00 EMaxC= 1.00D-01 BMatC= 6.11D-01 BMatP= 6.11D-01
 IDIUse=3 WtCom= 5.91D-01 WtEn= 4.09D-01
 Coeff-Com:  0.100D+01
 Coeff-En:   0.100D+01
 Coeff:      0.100D+01
 Gap=     0.198 Goal=   None    Shift=    0.000
 GapD=    0.198 DampG=1.000 DampE=0.500 DampFc=0.5000 IDamp=-1.
 Damping current iteration by 5.00D-01
 RMSDP=6.21D-02 MaxDP=4.43D+00              OVMax= 2.99D-01

 Cycle   2  Pass 1  IDiag  1:
 RMSU=  3.10D-02    CP:  1.01D+00
 E= -1560.07189277660     Delta-E=       -0.158355785758 Rises=F Damp=T
 DIIS: error= 1.22D-02 at cycle   2 NSaved=   2.
 NSaved= 2 IEnMin= 2 EnMin= -1560.07189277660     IErMin= 2 ErrMin= 1.22D-02
 ErrMax= 1.22D-02  0.00D+00 EMaxC= 1.00D-01 BMatC= 7.71D-02 BMatP= 6.11D-01
 IDIUse=3 WtCom= 8.78D-01 WtEn= 1.22D-01
 Coeff-Com:  0.147D+00 0.853D+00
 Coeff-En:   0.307D+00 0.693D+00
 Coeff:      0.166D+00 0.834D+00
 Gap=     0.205 Goal=   None    Shift=    0.000
 RMSDP=2.54D-02 MaxDP=1.94D+00 DE=-1.58D-01 OVMax= 2.41D-01

 Cycle   3  Pass 1  IDiag  1:
 RMSU=  6.78D-03    CP:  9.33D-01  2.34D-01
 E= -1560.36378424854     Delta-E=       -0.291891471943 Rises=F Damp=F
 DIIS: error= 1.57D-02 at cycle   3 NSaved=   3.
 NSaved= 3 IEnMin= 3 EnMin= -1560.36378424854     IErMin= 2 ErrMin= 1.22D-02
 ErrMax= 1.57D-02  0.00D+00 EMaxC= 1.00D-01 BMatC= 6.02D-02 BMatP= 7.71D-02
 IDIUse=3 WtCom= 8.43D-01 WtEn= 1.57D-01
 Coeff-Com: -0.110D-02 0.462D+00 0.539D+00
 Coeff-En:   0.000D+00 0.000D+00 0.100D+01
 Coeff:     -0.929D-03 0.390D+00 0.611D+00
 Gap=     0.106 Goal=   None    Shift=    0.000
 RMSDP=6.05D-03 MaxDP=3.78D-01 DE=-2.92D-01 OVMax= 9.55D-02

 Cycle   4  Pass 1  IDiag  1:
 RMSU=  4.24D-03    CP:  9.68D-01  3.37D-01  8.03D-01
 E= -1560.38121167457     Delta-E=       -0.017427426027 Rises=F Damp=F
 DIIS: error= 1.33D-02 at cycle   4 NSaved=   4.
 NSaved= 4 IEnMin= 4 EnMin= -1560.38121167457     IErMin= 2 ErrMin= 1.22D-02
 ErrMax= 1.33D-02  0.00D+00 EMaxC= 1.00D-01 BMatC= 3.95D-02 BMatP= 6.02D-02
 IDIUse=3 WtCom= 8.67D-01 WtEn= 1.33D-01
 Coeff-Com: -0.234D-01 0.104D+00 0.455D+00 0.465D+00
 Coeff-En:   0.000D+00 0.000D+00 0.421D+00 0.579D+00
 Coeff:     -0.203D-01 0.898D-01 0.451D+00 0.480D+00
 Gap=     0.112 Goal=   None    Shift=    0.000
 RMSDP=5.06D-03 MaxDP=3.87D-01 DE=-1.74D-02 OVMax= 4.62D-02

 Cycle   5  Pass 1  IDiag  1:
 RMSU=  1.66D-03    CP:  9.15D-01  3.28D-01  9.40D-01  4.22D-01
 E= -1560.41486652329     Delta-E=       -0.033654848716 Rises=F Damp=F
 DIIS: error= 1.00D-03 at cycle   5 NSaved=   5.
 NSaved= 5 IEnMin= 5 EnMin= -1560.41486652329     IErMin= 5 ErrMin= 1.00D-03
 ErrMax= 1.00D-03  0.00D+00 EMaxC= 1.00D-01 BMatC= 4.81D-04 BMatP= 3.95D-02
 IDIUse=3 WtCom= 9.90D-01 WtEn= 1.00D-02
 Coeff-Com: -0.499D-02 0.993D-02 0.153D+00 0.205D+00 0.637D+00
 Coeff-En:   0.000D+00 0.000D+00 0.000D+00 0.000D+00 0.100D+01
 Coeff:     -0.494D-02 0.983D-02 0.151D+00 0.203D+00 0.641D+00
 Gap=     0.110 Goal=   None    Shift=    0.000
 RMSDP=6.99D-04 MaxDP=4.18D-02 DE=-3.37D-02 OVMax= 7.08D-03

 Cycle   6  Pass 1  IDiag  1:
 RMSU=  2.47D-04    CP:  9.18D-01  3.12D-01  9.37D-01  4.63D-01  8.35D-01
 E= -1560.41523845807     Delta-E=       -0.000371934779 Rises=F Damp=F
 DIIS: error= 8.08D-04 at cycle   6 NSaved=   6.
 NSaved= 6 IEnMin= 6 EnMin= -1560.41523845807     IErMin= 6 ErrMin= 8.08D-04
 ErrMax= 8.08D-04  0.00D+00 EMaxC= 1.00D-01 BMatC= 1.00D-04 BMatP= 4.81D-04
 IDIUse=3 WtCom= 9.92D-01 WtEn= 8.08D-03
 Coeff-Com: -0.654D-03-0.345D-02 0.546D-01 0.872D-01 0.384D+00 0.478D+00
 Coeff-En:   0.000D+00 0.000D+00 0.000D+00 0.000D+00 0.114D+00 0.886D+00
 Coeff:     -0.648D-03-0.342D-02 0.542D-01 0.865D-01 0.382D+00 0.482D+00
 Gap=     0.111 Goal=   None    Shift=    0.000
 RMSDP=2.81D-04 MaxDP=1.35D-02 DE=-3.72D-04 OVMax= 3.30D-03

 Cycle   7  Pass 1  IDiag  1:
 RMSU=  1.09D-04    CP:  9.21D-01  3.13D-01  9.38D-01  4.63D-01  7.62D-01
                    CP:  8.14D-01
 E= -1560.41533973095     Delta-E=       -0.000101272881 Rises=F Damp=F
 DIIS: error= 2.27D-04 at cycle   7 NSaved=   7.
 NSaved= 7 IEnMin= 7 EnMin= -1560.41533973095     IErMin= 7 ErrMin= 2.27D-04
 ErrMax= 2.27D-04  0.00D+00 EMaxC= 1.00D-01 BMatC= 6.95D-06 BMatP= 1.00D-04
 IDIUse=3 WtCom= 9.98D-01 WtEn= 2.27D-03
 Coeff-Com:  0.462D-03-0.295D-02 0.819D-02 0.174D-01 0.936D-01 0.238D+00
 Coeff-Com:  0.646D+00
 Coeff-En:   0.000D+00 0.000D+00 0.000D+00 0.000D+00 0.000D+00 0.695D-02
 Coeff-En:   0.993D+00
 Coeff:      0.461D-03-0.294D-02 0.817D-02 0.174D-01 0.934D-01 0.237D+00
 Coeff:      0.646D+00
 Gap=     0.111 Goal=   None    Shift=    0.000
 RMSDP=6.48D-05 MaxDP=2.78D-03 DE=-1.01D-04 OVMax= 1.07D-03

 Cycle   8  Pass 1  IDiag  1:
 RMSU=  3.32D-05    CP:  9.22D-01  3.12D-01  9.39D-01  4.70D-01  7.75D-01
                    CP:  8.79D-01  8.46D-01
 E= -1560.41534704007     Delta-E=       -0.000007309123 Rises=F Damp=F
 DIIS: error= 3.66D-05 at cycle   8 NSaved=   8.
 NSaved= 8 IEnMin= 8 EnMin= -1560.41534704007     IErMin= 8 ErrMin= 3.66D-05
 ErrMax= 3.66D-05  0.00D+00 EMaxC= 1.00D-01 BMatC= 8.52D-07 BMatP= 6.95D-06
 IDIUse=1 WtCom= 1.00D+00 WtEn= 0.00D+00
 Coeff-Com:  0.380D-03-0.122D-02-0.201D-02-0.142D-02 0.165D-02 0.630D-01
 Coeff-Com:  0.324D+00 0.615D+00
 Coeff:      0.380D-03-0.122D-02-0.201D-02-0.142D-02 0.165D-02 0.630D-01
 Coeff:      0.324D+00 0.615D+00
 Gap=     0.111 Goal=   None    Shift=    0.000
 RMSDP=2.13D-05 MaxDP=8.59D-04 DE=-7.31D-06 OVMax= 3.69D-04

 Cycle   9  Pass 1  IDiag  1:
 RMSU=  1.03D-05    CP:  9.21D-01  3.12D-01  9.40D-01  4.68D-01  7.70D-01
                    CP:  8.89D-01  9.58D-01  8.03D-01
 E= -1560.41534791425     Delta-E=       -0.000000874183 Rises=F Damp=F
 DIIS: error= 1.64D-05 at cycle   9 NSaved=   9.
 NSaved= 9 IEnMin= 9 EnMin= -1560.41534791425     IErMin= 9 ErrMin= 1.64D-05
 ErrMax= 1.64D-05  0.00D+00 EMaxC= 1.00D-01 BMatC= 1.11D-07 BMatP= 8.52D-07
 IDIUse=1 WtCom= 1.00D+00 WtEn= 0.00D+00
 Coeff-Com:  0.172D-03-0.366D-03-0.212D-02-0.299D-02-0.103D-01 0.629D-02
 Coeff-Com:  0.994D-01 0.325D+00 0.584D+00
 Coeff:      0.172D-03-0.366D-03-0.212D-02-0.299D-02-0.103D-01 0.629D-02
 Coeff:      0.994D-01 0.325D+00 0.584D+00
 Gap=     0.111 Goal=   None    Shift=    0.000
 RMSDP=1.18D-05 MaxDP=4.82D-04 DE=-8.74D-07 OVMax= 1.05D-04

 Cycle  10  Pass 1  IDiag  1:
 RMSU=  3.09D-06    CP:  9.21D-01  3.12D-01  9.40D-01  4.68D-01  7.74D-01
                    CP:  8.99D-01  9.45D-01  9.25D-01  8.78D-01
 E= -1560.41534802580     Delta-E=       -0.000000111545 Rises=F Damp=F
 DIIS: error= 4.88D-06 at cycle  10 NSaved=  10.
 NSaved=10 IEnMin=10 EnMin= -1560.41534802580     IErMin=10 ErrMin= 4.88D-06
 ErrMax= 4.88D-06  0.00D+00 EMaxC= 1.00D-01 BMatC= 7.28D-09 BMatP= 1.11D-07
 IDIUse=1 WtCom= 1.00D+00 WtEn= 0.00D+00
 Coeff-Com:  0.333D-04-0.412D-04-0.625D-03-0.103D-02-0.427D-02-0.323D-02
 Coeff-Com:  0.116D-01 0.802D-01 0.255D+00 0.662D+00
 Coeff:      0.333D-04-0.412D-04-0.625D-03-0.103D-02-0.427D-02-0.323D-02
 Coeff:      0.116D-01 0.802D-01 0.255D+00 0.662D+00
 Gap=     0.111 Goal=   None    Shift=    0.000
 RMSDP=3.96D-06 MaxDP=1.89D-04 DE=-1.12D-07 OVMax= 6.37D-05

 Cycle  11  Pass 1  IDiag  1:
 RMSU=  1.00D-06    CP:  9.21D-01  3.12D-01  9.40D-01  4.68D-01  7.73D-01
                    CP:  8.98D-01  9.53D-01  9.02D-01  9.07D-01  8.37D-01
 E= -1560.41534803289     Delta-E=       -0.000000007089 Rises=F Damp=F
 DIIS: error= 4.02D-06 at cycle  11 NSaved=  11.
 NSaved=11 IEnMin=11 EnMin= -1560.41534803289     IErMin=11 ErrMin= 4.02D-06
 ErrMax= 4.02D-06  0.00D+00 EMaxC= 1.00D-01 BMatC= 2.11D-09 BMatP= 7.28D-09
 IDIUse=1 WtCom= 1.00D+00 WtEn= 0.00D+00
 Coeff-Com: -0.520D-05 0.299D-04-0.812D-04-0.182D-03-0.125D-02-0.303D-02
 Coeff-Com: -0.714D-02-0.254D-03 0.651D-01 0.396D+00 0.551D+00
 Coeff:     -0.520D-05 0.299D-04-0.812D-04-0.182D-03-0.125D-02-0.303D-02
 Coeff:     -0.714D-02-0.254D-03 0.651D-01 0.396D+00 0.551D+00
 Gap=     0.111 Goal=   None    Shift=    0.000
 RMSDP=1.40D-06 MaxDP=7.92D-05 DE=-7.09D-09 OVMax= 1.93D-05

 Cycle  12  Pass 1  IDiag  1:
 RMSU=  4.95D-07    CP:  9.21D-01  3.12D-01  9.40D-01  4.68D-01  7.73D-01
                    CP:  8.99D-01  9.53D-01  9.20D-01  9.11D-01  8.86D-01
                    CP:  9.89D-01
 E= -1560.41534803535     Delta-E=       -0.000000002462 Rises=F Damp=F
 DIIS: error= 5.73D-07 at cycle  12 NSaved=  12.
 NSaved=12 IEnMin=12 EnMin= -1560.41534803535     IErMin=12 ErrMin= 5.73D-07
 ErrMax= 5.73D-07  0.00D+00 EMaxC= 1.00D-01 BMatC= 8.09D-11 BMatP= 2.11D-09
 IDIUse=1 WtCom= 1.00D+00 WtEn= 0.00D+00
 Coeff-Com: -0.379D-05 0.102D-04 0.234D-04 0.416D-04-0.685D-04-0.680D-03
 Coeff-Com: -0.285D-02-0.767D-02-0.374D-02 0.742D-01 0.197D+00 0.744D+00
 Coeff:     -0.379D-05 0.102D-04 0.234D-04 0.416D-04-0.685D-04-0.680D-03
 Coeff:     -0.285D-02-0.767D-02-0.374D-02 0.742D-01 0.197D+00 0.744D+00
 Gap=     0.111 Goal=   None    Shift=    0.000
 RMSDP=2.32D-07 MaxDP=1.02D-05 DE=-2.46D-09 OVMax= 6.54D-06

 Cycle  13  Pass 1  IDiag  1:
 RMSU=  8.14D-08    CP:  9.21D-01  3.12D-01  9.40D-01  4.68D-01  7.73D-01
                    CP:  8.99D-01  9.54D-01  9.19D-01  9.15D-01  9.00D-01
                    CP:  1.04D+00  8.05D-01
 E= -1560.41534803544     Delta-E=       -0.000000000087 Rises=F Damp=F
 DIIS: error= 3.49D-07 at cycle  13 NSaved=  13.
 NSaved=13 IEnMin=13 EnMin= -1560.41534803544     IErMin=13 ErrMin= 3.49D-07
 ErrMax= 3.49D-07  0.00D+00 EMaxC= 1.00D-01 BMatC= 1.94D-11 BMatP= 8.09D-11
 IDIUse=1 WtCom= 1.00D+00 WtEn= 0.00D+00
 Coeff-Com: -0.167D-05 0.349D-05 0.170D-04 0.358D-04 0.417D-04-0.181D-03
 Coeff-Com: -0.106D-02-0.442D-02-0.785D-02 0.109D-01 0.671D-01 0.429D+00
 Coeff-Com:  0.506D+00
 Coeff:     -0.167D-05 0.349D-05 0.170D-04 0.358D-04 0.417D-04-0.181D-03
 Coeff:     -0.106D-02-0.442D-02-0.785D-02 0.109D-01 0.671D-01 0.429D+00
 Coeff:      0.506D+00
 Gap=     0.111 Goal=   None    Shift=    0.000
 RMSDP=8.77D-08 MaxDP=5.20D-06 DE=-8.69D-11 OVMax= 2.79D-06

 Cycle  14  Pass 1  IDiag  1:
 RMSU=  2.81D-08    CP:  9.21D-01  3.12D-01  9.40D-01  4.68D-01  7.73D-01
                    CP:  8.99D-01  9.54D-01  9.19D-01  9.16D-01  9.01D-01
                    CP:  1.04D+00  8.57D-01  7.60D-01
 E= -1560.41534803548     Delta-E=       -0.000000000045 Rises=F Damp=F
 DIIS: error= 1.14D-07 at cycle  14 NSaved=  14.
 NSaved=14 IEnMin=14 EnMin= -1560.41534803548     IErMin=14 ErrMin= 1.14D-07
 ErrMax= 1.14D-07  0.00D+00 EMaxC= 1.00D-01 BMatC= 1.85D-12 BMatP= 1.94D-11
 IDIUse=1 WtCom= 1.00D+00 WtEn= 0.00D+00
 Coeff-Com: -0.114D-06-0.622D-07 0.366D-05 0.959D-05 0.328D-04 0.198D-04
 Coeff-Com:  0.132D-04-0.625D-03-0.306D-02-0.786D-02-0.568D-02 0.655D-01
 Coeff-Com:  0.256D+00 0.696D+00
 Coeff:     -0.114D-06-0.622D-07 0.366D-05 0.959D-05 0.328D-04 0.198D-04
 Coeff:      0.132D-04-0.625D-03-0.306D-02-0.786D-02-0.568D-02 0.655D-01
 Coeff:      0.256D+00 0.696D+00
 Gap=     0.111 Goal=   None    Shift=    0.000
 RMSDP=3.69D-08 MaxDP=1.45D-06 DE=-4.50D-11 OVMax= 1.04D-06

 Cycle  15  Pass 1  IDiag  1:
 RMSU=  1.43D-08    CP:  9.21D-01  3.12D-01  9.40D-01  4.68D-01  7.73D-01
                    CP:  8.99D-01  9.54D-01  9.19D-01  9.15D-01  9.03D-01
                    CP:  1.06D+00  8.83D-01  8.53D-01  1.04D+00
 E= -1560.41534803546     Delta-E=        0.000000000025 Rises=F Damp=F
 DIIS: error= 1.60D-08 at cycle  15 NSaved=  15.
 NSaved=15 IEnMin=14 EnMin= -1560.41534803548     IErMin=15 ErrMin= 1.60D-08
 ErrMax= 1.60D-08  0.00D+00 EMaxC= 1.00D-01 BMatC= 1.35D-13 BMatP= 1.85D-12
 IDIUse=1 WtCom= 1.00D+00 WtEn= 0.00D+00
 Coeff-Com:  0.143D-06-0.405D-06-0.393D-06-0.783D-08 0.106D-04 0.276D-04
 Coeff-Com:  0.149D-03 0.350D-03-0.191D-03-0.434D-02-0.107D-01-0.296D-01
 Coeff-Com:  0.474D-01 0.252D+00 0.745D+00
 Coeff:      0.143D-06-0.405D-06-0.393D-06-0.783D-08 0.106D-04 0.276D-04
 Coeff:      0.149D-03 0.350D-03-0.191D-03-0.434D-02-0.107D-01-0.296D-01
 Coeff:      0.474D-01 0.252D+00 0.745D+00
 Gap=     0.111 Goal=   None    Shift=    0.000
 RMSDP=1.77D-08 MaxDP=8.79D-07 DE= 2.50D-11 OVMax= 3.68D-07

 Cycle  16  Pass 1  IDiag  1:
 RMSU=  2.94D-09    CP:  9.21D-01  3.12D-01  9.40D-01  4.68D-01  7.73D-01
                    CP:  8.99D-01  9.54D-01  9.19D-01  9.15D-01  9.02D-01
                    CP:  1.06D+00  8.87D-01  8.74D-01  1.09D+00  9.18D-01
 E= -1560.41534803549     Delta-E=       -0.000000000032 Rises=F Damp=F
 DIIS: error= 8.38D-09 at cycle  16 NSaved=  16.
 NSaved=16 IEnMin=16 EnMin= -1560.41534803549     IErMin=16 ErrMin= 8.38D-09
 ErrMax= 8.38D-09  0.00D+00 EMaxC= 1.00D-01 BMatC= 2.37D-14 BMatP= 1.35D-13
 IDIUse=1 WtCom= 1.00D+00 WtEn= 0.00D+00
 Coeff-Com:  0.680D-07-0.145D-06-0.680D-06-0.106D-05 0.512D-06 0.660D-05
 Coeff-Com:  0.613D-04 0.216D-03 0.225D-03-0.956D-03-0.373D-02-0.190D-01
 Coeff-Com:  0.740D-03 0.446D-01 0.362D+00 0.616D+00
 Coeff:      0.680D-07-0.145D-06-0.680D-06-0.106D-05 0.512D-06 0.660D-05
 Coeff:      0.613D-04 0.216D-03 0.225D-03-0.956D-03-0.373D-02-0.190D-01
 Coeff:      0.740D-03 0.446D-01 0.362D+00 0.616D+00
 Gap=     0.111 Goal=   None    Shift=    0.000
 RMSDP=4.08D-09 MaxDP=2.26D-07 DE=-3.18D-11 OVMax= 7.80D-08

 SCF Done:  E(RPBE1PBE) =  -1560.41534804     A.U. after   16 cycles
            NFock= 16  Conv=0.41D-08     -V/T= 2.0025
 KE= 1.556587989151D+03 PE=-6.971608507612D+03 EE= 2.205876541504D+03
 Leave Link  502 at Mon Apr  5 23:31:32 2021, MaxMem=  1342177280 cpu:            1543.9 elap:             128.8
 (Enter /data/apps/g16_2/l801.exe)
 DoSCS=F DFT=T ScalE2(SS,OS)=  1.000000  1.000000
 ExpMin= 3.60D-02 ExpMax= 9.34D+04 ExpMxC= 3.17D+03 IAcc=3 IRadAn=         5 AccDes= 0.00D+00
 HarFok:  IExCor=  205 AccDes= 0.00D+00 IRadAn=         5 IDoV=-2 UseB2=F ITyADJ=14
 ICtDFT= 12500011 ScaDFX=  1.000000  1.000000  1.000000  1.000000
 GSVD:  LWork=       -1008 too small for GESVD, short by        4340 words or        4340 for optimal perf.
 Largest valence mixing into a core orbital is  1.59D-04
 Largest core mixing into a valence orbital is  3.29D-05
 Range of M.O.s used for correlation:    29   505
 NBasis=   512 NAE=    76 NBE=    76 NFC=    28 NFV=     0
 NROrb=    477 NOA=    48 NOB=    48 NVA=   429 NVB=   429

 **** Warning!!: The largest alpha MO coefficient is  0.12802341D+03

 Leave Link  801 at Mon Apr  5 23:31:33 2021, MaxMem=  1342177280 cpu:               1.7 elap:               0.1
 (Enter /data/apps/g16_2/l914.exe)
 RHF ground state
 Two-electron integrals replicated using symmetry.
 MDV=  1342177280 DFT=T DoStab=F Mixed=T DoRPA=T DoScal=F NonHer=T
 Making orbital integer symmetry assigments:
 Orbital symmetries:
       Occupied  (A) (A) (A) (A) (A) (A) (A) (A) (A) (A) (A) (A)
                 (A) (A) (A) (A) (A) (A) (A) (A) (A) (A) (A) (A)
                 (A) (A) (A) (A) (A) (A) (A) (A) (A) (A) (A) (A)
                 (A) (A) (A) (A) (A) (A) (A) (A) (A) (A) (A) (A)
                 (A) (A) (A) (A) (A) (A) (A) (A) (A) (A) (A) (A)
                 (A) (A) (A) (A) (A) (A) (A) (A) (A) (A) (A) (A)
                 (A) (A) (A) (A)
       Virtual   (A) (A) (A) (A) (A) (A) (A) (A) (A) (A) (A) (A)
                 (A) (A) (A) (A) (A) (A) (A) (A) (A) (A) (A) (A)
                 (A) (A) (A) (A) (A) (A) (A) (A) (A) (A) (A) (A)
                 (A) (A) (A) (A) (A) (A) (A) (A) (A) (A) (A) (A)
                 (A) (A) (A) (A) (A) (A) (A) (A) (A) (A) (A) (A)
                 (A) (A) (A) (A) (A) (A) (A) (A) (A) (A) (A) (A)
                 (A) (A) (A) (A) (A) (A) (A) (A) (A) (A) (A) (A)
                 (A) (A) (A) (A) (A) (A) (A) (A) (A) (A) (A) (A)
                 (A) (A) (A) (A) (A) (A) (A) (A) (A) (A) (A) (A)
                 (A) (A) (A) (A) (A) (A) (A) (A) (A) (A) (A) (A)
                 (A) (A) (A) (A) (A) (A) (A) (A) (A) (A) (A) (A)
                 (A) (A) (A) (A) (A) (A) (A) (A) (A) (A) (A) (A)
                 (A) (A) (A) (A) (A) (A) (A) (A) (A) (A) (A) (A)
                 (A) (A) (A) (A) (A) (A) (A) (A) (A) (A) (A) (A)
                 (A) (A) (A) (A) (A) (A) (A) (A) (A) (A) (A) (A)
                 (A) (A) (A) (A) (A) (A) (A) (A) (A) (A) (A) (A)
                 (A) (A) (A) (A) (A) (A) (A) (A) (A) (A) (A) (A)
                 (A) (A) (A) (A) (A) (A) (A) (A) (A) (A) (A) (A)
                 (A) (A) (A) (A) (A) (A) (A) (A) (A) (A) (A) (A)
                 (A) (A) (A) (A) (A) (A) (A) (A) (A) (A) (A) (A)
                 (A) (A) (A) (A) (A) (A) (A) (A) (A) (A) (A) (A)
                 (A) (A) (A) (A) (A) (A) (A) (A) (A) (A) (A) (A)
                 (A) (A) (A) (A) (A) (A) (A) (A) (A) (A) (A) (A)
                 (A) (A) (A) (A) (A) (A) (A) (A) (A) (A) (A) (A)
                 (A) (A) (A) (A) (A) (A) (A) (A) (A) (A) (A) (A)
                 (A) (A) (A) (A) (A) (A) (A) (A) (A) (A) (A) (A)
                 (A) (A) (A) (A) (A) (A) (A) (A) (A) (A) (A) (A)
                 (A) (A) (A) (A) (A) (A) (A) (A) (A) (A) (A) (A)
                 (A) (A) (A) (A) (A) (A) (A) (A) (A) (A) (A) (A)
                 (A) (A) (A) (A) (A) (A) (A) (A) (A) (A) (A) (A)
                 (A) (A) (A) (A) (A) (A) (A) (A) (A) (A) (A) (A)
                 (A) (A) (A) (A) (A) (A) (A) (A) (A) (A) (A) (A)
                 (A) (A) (A) (A) (A) (A) (A) (A) (A) (A) (A) (A)
                 (A) (A) (A) (A) (A) (A) (A) (A) (A) (A) (A) (A)
                 (A) (A) (A) (A) (A) (A) (A) (A) (A) (A) (A) (A)
                 (A) (A) (A) (A) (A) (A) (A) (A) (A)
    60 initial guesses have been made.
 Convergence on wavefunction:    0.000001000000000
 Davidson Disk Diagonalization:  ConvIn= 1.00D-06 SkipCon=T Conv= 1.00D-06.
 Max sub-space:  2000 roots to seek:    60 dimension of matrix:        41184
 Iteration     1 Dimension    60 NMult     0 NNew     60
 CISAX will form    60 AO SS matrices at one time.
 NMat=    60 NSing=    60 JSym2X= 0.
 FoFJK:  IHMeth= 1 ICntrl=       0 DoSepK=F KAlg= 0 I1Cent=           0 FoldK=F
 IRaf= 790000000 NMat=     120 IRICut=     150 DoRegI=T DoRafI=T ISym2E= 0 IDoP0=3 IntGTp=3.
 FoFCou: FMM=F IPFlag=           0 FMFlag=      100000 FMFlg1=           0
         NFxFlg=           0 DoJE=F BraDBF=F KetDBF=F FulRan=T
         wScrn=  0.000000 ICntrl=         0 IOpCl=  0 I1Cent=           0 NGrid=           0
         NMat0=  120 NMatS0=     60 NMatT0=    0 NMatD0=  120 NMtDS0=    0 NMtDT0=    0
 Symmetry not used in FoFCou.
 Raff kept on since  78.67% of shell-pairs survive, threshold=   0.20 IRatSp=79.
 New state      4 was old state      7
 New state      5 was old state      4
 New state      6 was old state      5
 New state      7 was old state      6
 New state     11 was old state     13
 New state     12 was old state     11
 New state     13 was old state     15
 New state     14 was old state     21
 New state     15 was old state     14
 Excitation Energies [eV] at current iteration:
 Root      1 :     2.702498246144677
 Root      2 :     3.005882019918623
 Root      3 :     3.030955937826874
 Root      4 :     3.332719219684440
 Root      5 :     4.035918274100776
 Root      6 :     4.167307866114227
 Root      7 :     4.296050985971708
 Root      8 :     4.469331530765767
 Root      9 :     4.825358806327929
 Root     10 :     4.897810316748911
 Root     11 :     5.041116541731896
 Root     12 :     5.043152832125349
 Root     13 :     5.262041291155620
 Root     14 :     5.358545167370270
 Root     15 :     5.418533961664379
 Root     16 :     5.427793313812971
 Root     17 :     5.481811834507991
 Root     18 :     5.616615406202278
 Root     19 :     5.684168198923105
 Root     20 :     5.753436713716758
 Root     21 :     5.804171108722140
 Root     22 :     5.858878281123472
 Root     23 :     5.879024861166174
 Root     24 :     5.979257527984139
 Root     25 :     5.996353880466772
 Root     26 :     6.024575070378524
 Root     27 :     6.036459207576679
 Root     28 :     6.142724651401120
 Root     29 :     6.188425339688983
 Root     30 :     6.210544405247417
 Root     31 :     6.222049082872130
 Root     32 :     6.299612251534015
 Root     33 :     6.359538819997298
 Root     34 :     6.378902024523275
 Root     35 :     6.404137791986543
 Root     36 :     6.488058112347336
 Root     37 :     6.488212574864921
 Root     38 :     6.502082081854525
 Root     39 :     6.538654282140792
 Root     40 :     6.541947830807969
 Root     41 :     6.569292151787525
 Root     42 :     6.648862301435135
 Root     43 :     6.654533052198535
 Root     44 :     6.655738549305778
 Root     45 :     6.687643477404695
 Root     46 :     6.768335382431713
 Root     47 :     6.783900100136271
 Root     48 :     6.812241476871007
 Root     49 :     6.828570758893332
 Root     50 :     6.911828440630053
 Root     51 :     6.922934625840124
 Root     52 :     6.962467143993042
 Root     53 :     7.021470544956102
 Root     54 :     7.128046472225442
 Root     55 :     7.128792903150972
 Root     56 :     7.175757231213105
 Root     57 :     7.763766050368298
 Root     58 :     8.067879544254113
 Root     59 :     8.094589215253228
 Root     60 :     8.101227647442625
 Iteration     2 Dimension    90 NMult    60 NNew     30
 CISAX will form    30 AO SS matrices at one time.
 NMat=    30 NSing=    30 JSym2X= 0.
 Root      1 not converged, maximum delta is    0.071049613396735
 Root      2 not converged, maximum delta is    0.044021346132666
 Root      3 not converged, maximum delta is    0.046585806396213
 Root      4 not converged, maximum delta is    0.050513217865201
 Root      5 not converged, maximum delta is    0.085134570465940
 Root      6 not converged, maximum delta is    0.077624538021764
 Root      7 not converged, maximum delta is    0.081078513571213
 Root      8 not converged, maximum delta is    0.075454306157522
 Root      9 not converged, maximum delta is    0.414937517008450
 Root     10 not converged, maximum delta is    0.385441016357465
 New state     11 was old state     12
 Root     11 not converged, maximum delta is    0.098450002297260
 New state     12 was old state     11
 Root     12 not converged, maximum delta is    0.057251714854597
 Root     13 not converged, maximum delta is    0.060875975208599
 Root     14 not converged, maximum delta is    0.076119994478937
 Root     15 not converged, maximum delta is    0.065567699389078
 Excitation Energies [eV] at current iteration:
 Root      1 :     2.431476773918444   Change is   -0.271021472226233
 Root      2 :     2.857412473016780   Change is   -0.148469546901843
 Root      3 :     2.953842180120214   Change is   -0.077113757706659
 Root      4 :     3.222272295595660   Change is   -0.110446924088779
 Root      5 :     3.896495511143200   Change is   -0.139422762957576
 Root      6 :     4.009880434071827   Change is   -0.157427432042399
 Root      7 :     4.083976293885460   Change is   -0.212074692086248
 Root      8 :     4.231329357795857   Change is   -0.238002172969910
 Root      9 :     4.696501804356656   Change is   -0.128857001971274
 Root     10 :     4.767859459588168   Change is   -0.129950857160744
 Root     11 :     4.911233987551263   Change is   -0.131918844574086
 Root     12 :     4.981482586186812   Change is   -0.059633955545085
 Root     13 :     5.170587468488510   Change is   -0.091453822667110
 Root     14 :     5.271587537105448   Change is   -0.086957630264821
 Root     15 :     5.281825886540813   Change is   -0.136708075123567
 Iteration     3 Dimension   120 NMult    90 NNew     30
 CISAX will form    30 AO SS matrices at one time.
 NMat=    30 NSing=    30 JSym2X= 0.
 Root      1 not converged, maximum delta is    0.008744045721493
 Root      2 not converged, maximum delta is    0.006077343803229
 Root      3 not converged, maximum delta is    0.002389127614630
 Root      4 not converged, maximum delta is    0.004221486580984
 Root      5 not converged, maximum delta is    0.005881875339154
 Root      6 not converged, maximum delta is    0.011882126782693
 Root      7 not converged, maximum delta is    0.021799386377019
 Root      8 not converged, maximum delta is    0.023248981340855
 Root      9 not converged, maximum delta is    0.028503501764868
 Root     10 not converged, maximum delta is    0.026411914528010
 Root     11 not converged, maximum delta is    0.025681133481053
 Root     12 not converged, maximum delta is    0.004038780369998
 Root     13 not converged, maximum delta is    0.004397106851608
 New state     14 was old state     15
 Root     14 not converged, maximum delta is    0.031328502543810
 New state     15 was old state     14
 Root     15 not converged, maximum delta is    0.018472264333895
 Excitation Energies [eV] at current iteration:
 Root      1 :     2.419765957238485   Change is   -0.011710816679959
 Root      2 :     2.850064741626325   Change is   -0.007347731390455
 Root      3 :     2.951930721733298   Change is   -0.001911458386916
 Root      4 :     3.218666577261314   Change is   -0.003605718334347
 Root      5 :     3.888637823067149   Change is   -0.007857688076051
 Root      6 :     3.998224522052410   Change is   -0.011655912019417
 Root      7 :     4.062419378230976   Change is   -0.021556915654484
 Root      8 :     4.212713896588991   Change is   -0.018615461206865
 Root      9 :     4.683248828639680   Change is   -0.013252975716976
 Root     10 :     4.758801172090849   Change is   -0.009058287497319
 Root     11 :     4.897416648763220   Change is   -0.013817338788043
 Root     12 :     4.979679159074006   Change is   -0.001803427112805
 Root     13 :     5.166998506397562   Change is   -0.003588962090949
 Root     14 :     5.267283876895436   Change is   -0.014542009645377
 Root     15 :     5.267774082372369   Change is   -0.003813454733080
 Iteration     4 Dimension   150 NMult   120 NNew     30
 CISAX will form    30 AO SS matrices at one time.
 NMat=    30 NSing=    30 JSym2X= 0.
 Root      1 not converged, maximum delta is    0.001590485802160
 Root      2 not converged, maximum delta is    0.001176601731559
 Root      3 not converged, maximum delta is    0.000269907693525
 Root      4 not converged, maximum delta is    0.000592695148377
 Root      5 not converged, maximum delta is    0.002021943980331
 Root      6 not converged, maximum delta is    0.001795364015761
 Root      7 not converged, maximum delta is    0.001861283502570
 Root      8 not converged, maximum delta is    0.003626587125241
 Root      9 not converged, maximum delta is    0.002651560408396
 Root     10 not converged, maximum delta is    0.001839089980959
 Root     11 not converged, maximum delta is    0.001852721058041
 Root     12 not converged, maximum delta is    0.000445834410083
 Root     13 not converged, maximum delta is    0.000883366829648
 Root     14 not converged, maximum delta is    0.007931922953082
 Root     15 not converged, maximum delta is    0.007855998306651
 Excitation Energies [eV] at current iteration:
 Root      1 :     2.418787904350835   Change is   -0.000978052887650
 Root      2 :     2.849672139691609   Change is   -0.000392601934716
 Root      3 :     2.951836253652369   Change is   -0.000094468080930
 Root      4 :     3.218419933850965   Change is   -0.000246643410348
 Root      5 :     3.887990658465993   Change is   -0.000647164601156
 Root      6 :     3.997365619715838   Change is   -0.000858902336573
 Root      7 :     4.061132621307009   Change is   -0.001286756923966
 Root      8 :     4.211230445211316   Change is   -0.001483451377675
 Root      9 :     4.681967420780404   Change is   -0.001281407859277
 Root     10 :     4.758011672578633   Change is   -0.000789499512216
 Root     11 :     4.896507007255831   Change is   -0.000909641507389
 Root     12 :     4.979583682668078   Change is   -0.000095476405929
 Root     13 :     5.166711763562529   Change is   -0.000286742835032
 Root     14 :     5.265937511961593   Change is   -0.001346364933843
 Root     15 :     5.267485354215578   Change is   -0.000288728156791
 Iteration     5 Dimension   180 NMult   150 NNew     30
 CISAX will form    30 AO SS matrices at one time.
 NMat=    30 NSing=    30 JSym2X= 0.
 Root      1 not converged, maximum delta is    0.000186722352911
 Root      2 not converged, maximum delta is    0.000152968446132
 Root      3 not converged, maximum delta is    0.000087570379102
 Root      4 not converged, maximum delta is    0.000163274987916
 Root      5 not converged, maximum delta is    0.000196508275816
 Root      6 not converged, maximum delta is    0.000225487216408
 Root      7 not converged, maximum delta is    0.000340344046838
 Root      8 not converged, maximum delta is    0.000395320509368
 Root      9 not converged, maximum delta is    0.000390883659639
 Root     10 not converged, maximum delta is    0.000324753363485
 Root     11 not converged, maximum delta is    0.000280766052011
 Root     12 not converged, maximum delta is    0.000264995961430
 Root     13 not converged, maximum delta is    0.000273478137769
 Root     14 not converged, maximum delta is    0.000546426586779
 Root     15 not converged, maximum delta is    0.002330303939513
 Excitation Energies [eV] at current iteration:
 Root      1 :     2.418756269710990   Change is   -0.000031634639845
 Root      2 :     2.849653802930659   Change is   -0.000018336760950
 Root      3 :     2.951832922511019   Change is   -0.000003331141350
 Root      4 :     3.218411162826141   Change is   -0.000008771024824
 Root      5 :     3.887962317870525   Change is   -0.000028340595468
 Root      6 :     3.997326600964723   Change is   -0.000039018751115
 Root      7 :     4.061068285171776   Change is   -0.000064336135233
 Root      8 :     4.211160126148958   Change is   -0.000070319062358
 Root      9 :     4.681894571888142   Change is   -0.000072848892262
 Root     10 :     4.757963141654043   Change is   -0.000048530924589
 Root     11 :     4.896454741298927   Change is   -0.000052265956903
 Root     12 :     4.979575576071645   Change is   -0.000008106596433
 Root     13 :     5.166691247204414   Change is   -0.000020516358115
 Root     14 :     5.265830423977140   Change is   -0.000107087984453
 Root     15 :     5.267458513052409   Change is   -0.000026841163168
 Iteration     6 Dimension   210 NMult   180 NNew     30
 CISAX will form    30 AO SS matrices at one time.
 NMat=    30 NSing=    30 JSym2X= 0.
 Root      1 not converged, maximum delta is    0.000026488487153
 Root      2 not converged, maximum delta is    0.000021344703319
 Root      3 not converged, maximum delta is    0.000018997668096
 Root      4 not converged, maximum delta is    0.000027660338184
 Root      5 not converged, maximum delta is    0.000047220357894
 Root      6 not converged, maximum delta is    0.000051602860859
 Root      7 not converged, maximum delta is    0.000059635110711
 Root      8 not converged, maximum delta is    0.000102795241453
 Root      9 not converged, maximum delta is    0.000115608887787
 Root     10 not converged, maximum delta is    0.000099535694177
 Root     11 not converged, maximum delta is    0.000134016066353
 Root     12 not converged, maximum delta is    0.000057090790181
 Root     13 not converged, maximum delta is    0.000157778070062
 No map to state     14
 New state     15 was old state     14
 Root     15 not converged, maximum delta is    0.000269430080853
 Excitation Energies [eV] at current iteration:
 Root      1 :     2.418755379824311   Change is   -0.000000889886679
 Root      2 :     2.849653414650571   Change is   -0.000000388280089
 Root      3 :     2.951832797774101   Change is   -0.000000124736917
 Root      4 :     3.218410771238165   Change is   -0.000000391587976
 Root      5 :     3.887961199929607   Change is   -0.000001117940918
 Root      6 :     3.997324889307606   Change is   -0.000001711657117
 Root      7 :     4.061065723745923   Change is   -0.000002561425853
 Root      8 :     4.211155923543548   Change is   -0.000004202605411
 Root      9 :     4.681890203667052   Change is   -0.000004368221090
 Root     10 :     4.757959890962438   Change is   -0.000003250691606
 Root     11 :     4.896451069623197   Change is   -0.000003671675731
 Root     12 :     4.979574840763307   Change is   -0.000000735308338
 Root     13 :     5.166689367992192   Change is   -0.000001879212222
 Root     14 :     5.259885974235805
 Root     15 :     5.265820713590308   Change is   -0.000009710386832
 Iteration     7 Dimension   240 NMult   210 NNew     30
 CISAX will form    30 AO SS matrices at one time.
 NMat=    30 NSing=    30 JSym2X= 0.
 Root      1 not converged, maximum delta is    0.000003234576271
 Root      2 not converged, maximum delta is    0.000004133838067
 Root      3 not converged, maximum delta is    0.000002852735685
 Root      4 not converged, maximum delta is    0.000006667611238
 Root      5 not converged, maximum delta is    0.000011574366469
 Root      6 not converged, maximum delta is    0.000013091329194
 Root      7 not converged, maximum delta is    0.000013919337461
 Root      8 not converged, maximum delta is    0.000019341860260
 Root      9 not converged, maximum delta is    0.000047239129637
 Root     10 not converged, maximum delta is    0.000024286326148
 Root     11 not converged, maximum delta is    0.000025423729191
 Root     12 not converged, maximum delta is    0.000014584099281
 Root     13 not converged, maximum delta is    0.000027990485570
 Root     14 not converged, maximum delta is    0.007758667481874
 Root     15 not converged, maximum delta is    0.000098498711298
 Excitation Energies [eV] at current iteration:
 Root      1 :     2.418755363522975   Change is   -0.000000016301336
 Root      2 :     2.849653402305481   Change is   -0.000000012345090
 Root      3 :     2.951832794992562   Change is   -0.000000002781540
 Root      4 :     3.218410759939982   Change is   -0.000000011298183
 Root      5 :     3.887961151174629   Change is   -0.000000048754978
 Root      6 :     3.997324819863756   Change is   -0.000000069443850
 Root      7 :     4.061065601966496   Change is   -0.000000121779427
 Root      8 :     4.211155668884393   Change is   -0.000000254659155
 Root      9 :     4.681889884778155   Change is   -0.000000318888898
 Root     10 :     4.757959637900321   Change is   -0.000000253062117
 Root     11 :     4.896450801052842   Change is   -0.000000268570356
 Root     12 :     4.979574756152615   Change is   -0.000000084610693
 Root     13 :     5.166689142846663   Change is   -0.000000225145529
 Root     14 :     5.255028604907152   Change is   -0.004857369328652
 Root     15 :     5.265819612514695   Change is   -0.000001101075614
 Iteration     8 Dimension   270 NMult   240 NNew     30
 CISAX will form    30 AO SS matrices at one time.
 NMat=    30 NSing=    30 JSym2X= 0.
 Root      1 has converged.
 Root      2 has converged.
 Root      3 has converged.
 Root      4 has converged.
 Root      5 not converged, maximum delta is    0.000002513967375
 Root      6 not converged, maximum delta is    0.000003603952559
 Root      7 not converged, maximum delta is    0.000004914044652
 Root      8 not converged, maximum delta is    0.000005211250072
 Root      9 not converged, maximum delta is    0.000011713619854
 Root     10 not converged, maximum delta is    0.000009780940184
 Root     11 not converged, maximum delta is    0.000010410186544
 Root     12 not converged, maximum delta is    0.000005782509954
 Root     13 not converged, maximum delta is    0.000011134836062
 Root     14 not converged, maximum delta is    0.000456014794698
 Root     15 not converged, maximum delta is    0.000012856881497
 Excitation Energies [eV] at current iteration:
 Root      1 :     2.418755363247064   Change is   -0.000000000275911
 Root      2 :     2.849653402084215   Change is   -0.000000000221266
 Root      3 :     2.951832794931292   Change is   -0.000000000061269
 Root      4 :     3.218410759553365   Change is   -0.000000000386617
 Root      5 :     3.887961148406610   Change is   -0.000000002768019
 Root      6 :     3.997324816103556   Change is   -0.000000003760200
 Root      7 :     4.061065596378459   Change is   -0.000000005588037
 Root      8 :     4.211155654879843   Change is   -0.000000014004550
 Root      9 :     4.681889852191343   Change is   -0.000000032586811
 Root     10 :     4.757959614810905   Change is   -0.000000023089415
 Root     11 :     4.896450775279800   Change is   -0.000000025773041
 Root     12 :     4.979574746866120   Change is   -0.000000009286495
 Root     13 :     5.166689114439991   Change is   -0.000000028406672
 Root     14 :     5.254846488703982   Change is   -0.000182116203171
 Root     15 :     5.265819501436967   Change is   -0.000000111077728
 Iteration     9 Dimension   292 NMult   270 NNew     22
 CISAX will form    22 AO SS matrices at one time.
 NMat=    22 NSing=    22 JSym2X= 0.
 Root      1 has converged.
 Root      2 has converged.
 Root      3 has converged.
 Root      4 has converged.
 Root      5 has converged.
 Root      6 has converged.
 Root      7 has converged.
 Root      8 not converged, maximum delta is    0.000001443717911
 Root      9 not converged, maximum delta is    0.000002148874838
 Root     10 not converged, maximum delta is    0.000001741910226
 Root     11 not converged, maximum delta is    0.000002193528560
 Root     12 not converged, maximum delta is    0.000002349643445
 Root     13 not converged, maximum delta is    0.000003588153951
 Root     14 not converged, maximum delta is    0.000199121836934
 Root     15 not converged, maximum delta is    0.000005189100111
 Excitation Energies [eV] at current iteration:
 Root      1 :     2.418755363244855   Change is   -0.000000000002209
 Root      2 :     2.849653402081878   Change is   -0.000000000002337
 Root      3 :     2.951832794930986   Change is   -0.000000000000306
 Root      4 :     3.218410759552650   Change is   -0.000000000000715
 Root      5 :     3.887961148278075   Change is   -0.000000000128535
 Root      6 :     3.997324815898023   Change is   -0.000000000205533
 Root      7 :     4.061065596103805   Change is   -0.000000000274655
 Root      8 :     4.211155654073024   Change is   -0.000000000806818
 Root      9 :     4.681889849296576   Change is   -0.000000002894766
 Root     10 :     4.757959612934440   Change is   -0.000000001876466
 Root     11 :     4.896450772979897   Change is   -0.000000002299903
 Root     12 :     4.979574745840864   Change is   -0.000000001025255
 Root     13 :     5.166689111104762   Change is   -0.000000003335229
 Root     14 :     5.254832157695825   Change is   -0.000014331008156
 Root     15 :     5.265819491296964   Change is   -0.000000010140004
 Iteration    10 Dimension   308 NMult   292 NNew     16
 CISAX will form    16 AO SS matrices at one time.
 NMat=    16 NSing=    16 JSym2X= 0.
 Root      1 has converged.
 Root      2 has converged.
 Root      3 has converged.
 Root      4 has converged.
 Root      5 has converged.
 Root      6 has converged.
 Root      7 has converged.
 Root      8 has converged.
 Root      9 has converged.
 Root     10 has converged.
 Root     11 has converged.
 Root     12 has converged.
 Root     13 not converged, maximum delta is    0.000001240421073
 Root     14 not converged, maximum delta is    0.000093508281634
 Root     15 not converged, maximum delta is    0.000002049309561
 Excitation Energies [eV] at current iteration:
 Root      1 :     2.418755363244719   Change is   -0.000000000000136
 Root      2 :     2.849653402081820   Change is   -0.000000000000058
 Root      3 :     2.951832794930708   Change is   -0.000000000000278
 Root      4 :     3.218410759552215   Change is   -0.000000000000434
 Root      5 :     3.887961148277462   Change is   -0.000000000000613
 Root      6 :     3.997324815893293   Change is   -0.000000000004730
 Root      7 :     4.061065596098763   Change is   -0.000000000005041
 Root      8 :     4.211155654026525   Change is   -0.000000000046500
 Root      9 :     4.681889849085258   Change is   -0.000000000211318
 Root     10 :     4.757959612807913   Change is   -0.000000000126526
 Root     11 :     4.896450772782372   Change is   -0.000000000197525
 Root     12 :     4.979574745726590   Change is   -0.000000000114274
 Root     13 :     5.166689110698631   Change is   -0.000000000406130
 Root     14 :     5.254830732984726   Change is   -0.000001424711099
 Root     15 :     5.265819490238689   Change is   -0.000000001058274
 Iteration    11 Dimension   314 NMult   308 NNew      6
 CISAX will form     6 AO SS matrices at one time.
 NMat=     6 NSing=     6 JSym2X= 0.
 Root      1 has converged.
 Root      2 has converged.
 Root      3 has converged.
 Root      4 has converged.
 Root      5 has converged.
 Root      6 has converged.
 Root      7 has converged.
 Root      8 has converged.
 Root      9 has converged.
 Root     10 has converged.
 Root     11 has converged.
 Root     12 has converged.
 Root     13 has converged.
 Root     14 not converged, maximum delta is    0.000032678155783
 Root     15 has converged.
 Excitation Energies [eV] at current iteration:
 Root      1 :     2.418755363244820   Change is    0.000000000000102
 Root      2 :     2.849653402081849   Change is    0.000000000000029
 Root      3 :     2.951832794930735   Change is    0.000000000000028
 Root      4 :     3.218410759552241   Change is    0.000000000000026
 Root      5 :     3.887961148277229   Change is   -0.000000000000233
 Root      6 :     3.997324815893210   Change is   -0.000000000000082
 Root      7 :     4.061065596098258   Change is   -0.000000000000506
 Root      8 :     4.211155654026545   Change is    0.000000000000020
 Root      9 :     4.681889849085276   Change is    0.000000000000017
 Root     10 :     4.757959612807706   Change is   -0.000000000000207
 Root     11 :     4.896450772781516   Change is   -0.000000000000856
 Root     12 :     4.979574745726656   Change is    0.000000000000066
 Root     13 :     5.166689110656467   Change is   -0.000000000042164
 Root     14 :     5.254830553004663   Change is   -0.000000179980063
 Root     15 :     5.265819490125974   Change is   -0.000000000112715
 Iteration    12 Dimension   316 NMult   314 NNew      2
 CISAX will form     2 AO SS matrices at one time.
 NMat=     2 NSing=     2 JSym2X= 0.
 Root      1 has converged.
 Root      2 has converged.
 Root      3 has converged.
 Root      4 has converged.
 Root      5 has converged.
 Root      6 has converged.
 Root      7 has converged.
 Root      8 has converged.
 Root      9 has converged.
 Root     10 has converged.
 Root     11 has converged.
 Root     12 has converged.
 Root     13 has converged.
 Root     14 not converged, maximum delta is    0.000007411751494
 Root     15 has converged.
 Excitation Energies [eV] at current iteration:
 Root      1 :     2.418755363244651   Change is   -0.000000000000170
 Root      2 :     2.849653402081820   Change is   -0.000000000000029
 Root      3 :     2.951832794930791   Change is    0.000000000000056
 Root      4 :     3.218410759552215   Change is   -0.000000000000026
 Root      5 :     3.887961148277229   Change is    0.000000000000000
 Root      6 :     3.997324815893210   Change is    0.000000000000000
 Root      7 :     4.061065596098258   Change is    0.000000000000000
 Root      8 :     4.211155654026427   Change is   -0.000000000000118
 Root      9 :     4.681889849084767   Change is   -0.000000000000509
 Root     10 :     4.757959612807257   Change is   -0.000000000000449
 Root     11 :     4.896450772781449   Change is   -0.000000000000067
 Root     12 :     4.979574745726573   Change is   -0.000000000000082
 Root     13 :     5.166689110656483   Change is    0.000000000000016
 Root     14 :     5.254830530778523   Change is   -0.000000022226140
 Root     15 :     5.265819490126005   Change is    0.000000000000031
 Iteration    13 Dimension   318 NMult   316 NNew      2
 CISAX will form     2 AO SS matrices at one time.
 NMat=     2 NSing=     2 JSym2X= 0.
 Root      1 has converged.
 Root      2 has converged.
 Root      3 has converged.
 Root      4 has converged.
 Root      5 has converged.
 Root      6 has converged.
 Root      7 has converged.
 Root      8 has converged.
 Root      9 has converged.
 Root     10 has converged.
 Root     11 has converged.
 Root     12 has converged.
 Root     13 has converged.
 Root     14 not converged, maximum delta is    0.000002573768831
 Root     15 has converged.
 Excitation Energies [eV] at current iteration:
 Root      1 :     2.418755363244617   Change is   -0.000000000000034
 Root      2 :     2.849653402081734   Change is   -0.000000000000086
 Root      3 :     2.951832794930791   Change is    0.000000000000000
 Root      4 :     3.218410759552241   Change is    0.000000000000026
 Root      5 :     3.887961148277229   Change is    0.000000000000000
 Root      6 :     3.997324815893169   Change is   -0.000000000000041
 Root      7 :     4.061065596098238   Change is   -0.000000000000020
 Root      8 :     4.211155654026525   Change is    0.000000000000098
 Root      9 :     4.681889849084855   Change is    0.000000000000088
 Root     10 :     4.757959612807119   Change is   -0.000000000000138
 Root     11 :     4.896450772781432   Change is   -0.000000000000017
 Root     12 :     4.979574745726590   Change is    0.000000000000017
 Root     13 :     5.166689110656308   Change is   -0.000000000000175
 Root     14 :     5.254830528370570   Change is   -0.000000002407953
 Root     15 :     5.265819490125958   Change is   -0.000000000000047
 Iteration    14 Dimension   320 NMult   318 NNew      2
 CISAX will form     2 AO SS matrices at one time.
 NMat=     2 NSing=     2 JSym2X= 0.
 Root      1 has converged.
 Root      2 has converged.
 Root      3 has converged.
 Root      4 has converged.
 Root      5 has converged.
 Root      6 has converged.
 Root      7 has converged.
 Root      8 has converged.
 Root      9 has converged.
 Root     10 has converged.
 Root     11 has converged.
 Root     12 has converged.
 Root     13 has converged.
 Root     14 not converged, maximum delta is    0.000001016156178
 Root     15 has converged.
 Excitation Energies [eV] at current iteration:
 Root      1 :     2.418755363244820   Change is    0.000000000000204
 Root      2 :     2.849653402081791   Change is    0.000000000000058
 Root      3 :     2.951832794930791   Change is    0.000000000000000
 Root      4 :     3.218410759552190   Change is   -0.000000000000051
 Root      5 :     3.887961148277250   Change is    0.000000000000021
 Root      6 :     3.997324815893128   Change is   -0.000000000000042
 Root      7 :     4.061065596098238   Change is    0.000000000000000
 Root      8 :     4.211155654026525   Change is    0.000000000000000
 Root      9 :     4.681889849084802   Change is   -0.000000000000053
 Root     10 :     4.757959612807154   Change is    0.000000000000035
 Root     11 :     4.896450772781432   Change is    0.000000000000000
 Root     12 :     4.979574745726557   Change is   -0.000000000000033
 Root     13 :     5.166689110656308   Change is    0.000000000000000
 Root     14 :     5.254830528117417   Change is   -0.000000000253154
 Root     15 :     5.265819490125896   Change is   -0.000000000000062
 Iteration    15 Dimension   322 NMult   320 NNew      2
 CISAX will form     2 AO SS matrices at one time.
 NMat=     2 NSing=     2 JSym2X= 0.
 Root      1 has converged.
 Root      2 has converged.
 Root      3 has converged.
 Root      4 has converged.
 Root      5 has converged.
 Root      6 has converged.
 Root      7 has converged.
 Root      8 has converged.
 Root      9 has converged.
 Root     10 has converged.
 Root     11 has converged.
 Root     12 has converged.
 Root     13 has converged.
 Root     14 has converged.
 Root     15 has converged.
 Excitation Energies [eV] at current iteration:
 Root      1 :     2.418755363244651   Change is   -0.000000000000170
 Root      2 :     2.849653402081820   Change is    0.000000000000029
 Root      3 :     2.951832794930903   Change is    0.000000000000111
 Root      4 :     3.218410759552241   Change is    0.000000000000051
 Root      5 :     3.887961148277356   Change is    0.000000000000106
 Root      6 :     3.997324815893128   Change is    0.000000000000000
 Root      7 :     4.061065596098278   Change is    0.000000000000041
 Root      8 :     4.211155654026505   Change is   -0.000000000000020
 Root      9 :     4.681889849084732   Change is   -0.000000000000070
 Root     10 :     4.757959612806981   Change is   -0.000000000000173
 Root     11 :     4.896450772781415   Change is   -0.000000000000017
 Root     12 :     4.979574745726573   Change is    0.000000000000017
 Root     13 :     5.166689110656228   Change is   -0.000000000000079
 Root     14 :     5.254830528090258   Change is   -0.000000000027159
 Root     15 :     5.265819490125911   Change is    0.000000000000015
 Convergence achieved on expansion vectors.
 ***********************************************************************
 Excited states from <AA,BB:AA,BB> singles matrix:
 ***********************************************************************
 
 1PDM for each excited state written to RWF  633
 Ground to excited state transition densities written to RWF  633
 Ground to excited state transition electric dipole moments (Au):
       state          X           Y           Z        Dip. S.      Osc.
         1         1.9075     -0.3119     -0.0001      3.7358      0.2214
         2        -0.0000      0.0000     -0.0000      0.0000      0.0000
         3        -0.0004      0.0000      0.0000      0.0000      0.0000
         4        -0.0002     -0.0001      0.0136      0.0002      0.0000
         5         0.0000      0.0000      0.0001      0.0000      0.0000
         6         1.5134      0.2273      0.0001      2.3420      0.2294
         7        -0.0000     -0.0000      0.0001      0.0000      0.0000
         8         1.0856      0.1332     -0.0000      1.1964      0.1234
         9        -1.4719     -0.5189     -0.0000      2.4357      0.2794
        10         1.2825     -0.0168      0.0000      1.6451      0.1918
        11        -0.0000      0.0000     -0.0001      0.0000      0.0000
        12         0.0007      0.0003      0.0180      0.0003      0.0000
        13        -0.0000      0.0001      0.0000      0.0000      0.0000
        14        -0.4090      0.3589     -0.0001      0.2961      0.0381
        15         0.0000     -0.0000      0.0000      0.0000      0.0000
 Ground to excited state transition velocity dipole moments (Au):
       state          X           Y           Z        Dip. S.      Osc.
         1        -0.1661      0.0337      0.0000      0.0287      0.2155
         2         0.0000     -0.0000      0.0000      0.0000      0.0000
         3         0.0000     -0.0000     -0.0000      0.0000      0.0000
         4         0.0000      0.0000     -0.0019      0.0000      0.0000
         5        -0.0000     -0.0000     -0.0000      0.0000      0.0000
         6        -0.2166     -0.0276     -0.0000      0.0477      0.2165
         7         0.0000      0.0000     -0.0000      0.0000      0.0000
         8        -0.1624     -0.0217      0.0000      0.0268      0.1156
         9         0.2447      0.0910      0.0000      0.0682      0.2641
        10        -0.2211      0.0012     -0.0000      0.0489      0.1864
        11         0.0000     -0.0000      0.0000      0.0000      0.0000
        12        -0.0001     -0.0001     -0.0055      0.0000      0.0001
        13        -0.0000     -0.0000     -0.0000      0.0000      0.0000
        14         0.0718     -0.0611      0.0000      0.0089      0.0306
        15        -0.0000      0.0000     -0.0000      0.0000      0.0000
 Ground to excited state transition magnetic dipole moments (Au):
       state          X           Y           Z
         1        -0.0001      0.0002      0.0000
         2         0.0002      0.0012      1.5371
         3         0.1621      0.7659     -0.0030
         4         0.0000     -0.0000     -0.0001
         5        -0.0001     -0.0000      0.9107
         6         0.0000      0.0002     -0.0000
         7         0.0000      0.0002     -0.5539
         8         0.0001      0.0001      0.0000
         9        -0.0001     -0.0001     -0.0000
        10         0.0000      0.0002     -0.0000
        11        -0.0000     -0.0001     -0.4095
        12        -0.0000     -0.0000     -0.0001
        13         0.1377     -0.4651      0.0001
        14        -0.0002     -0.0002     -0.0000
        15        -0.0103     -0.0129     -0.3467
 Ground to excited state transition velocity quadrupole moments (Au):
       state          XX          YY          ZZ          XY          XZ          YZ
         1         0.0000     -0.0000      0.0000      0.0000     -0.0000      0.0000
         2         0.2775     -0.1458     -0.0042      0.2375     -0.0000     -0.0000
         3        -0.0005      0.0003      0.0000     -0.0005     -0.0362     -0.0018
         4         0.0001     -0.0000     -0.0000     -0.0000      0.0000      0.0000
         5        -0.5599     -0.0272      0.0009      0.5292      0.0000     -0.0000
         6        -0.0000      0.0000     -0.0000     -0.0000     -0.0001      0.0000
         7        -1.4207      0.1743     -0.0166     -0.1528     -0.0001      0.0001
         8        -0.0000      0.0000      0.0000      0.0000     -0.0000     -0.0000
         9        -0.0000     -0.0000     -0.0000     -0.0000      0.0001     -0.0000
        10         0.0000      0.0000     -0.0000      0.0000     -0.0001     -0.0000
        11         2.2487     -0.2242     -0.0552     -0.1189      0.0000      0.0000
        12         0.0005     -0.0000     -0.0000     -0.0001     -0.0000     -0.0000
        13        -0.0002     -0.0000      0.0000      0.0000     -0.1742     -0.0803
        14        -0.0000      0.0000      0.0000     -0.0000      0.0002      0.0000
        15        -0.9672      0.1925     -0.0230     -0.4585      0.0016     -0.0013
 <0|del|b> * <b|rxdel|0> + <0|del|b> * <b|delr+rdel|0>
 Rotatory Strengths (R) in cgs (10**-40 erg-esu-cm/Gauss)
       state          XX          YY          ZZ    R(velocity)    E-M Angle
         1         0.0291      0.0576      0.0893      0.0587       90.00
         2         0.0089      0.0065      0.0000      0.0051       90.00
         3        -0.0152      0.0247      0.0114      0.0070       90.00
         4         0.0003      0.0003      0.0000      0.0002       90.00
         5        -0.0299     -0.0079      0.0000     -0.0126       90.00
         6        -0.0206     -0.0192     -0.0082     -0.0160       90.00
         7         0.0155      0.0088     -0.0000      0.0081       90.00
         8        -0.0047     -0.0180     -0.0322     -0.0183       90.00
         9        -0.0366     -0.0505     -0.0368     -0.0413       90.00
        10         0.0007      0.0029     -0.0080     -0.0015       90.00
        11        -0.0217     -0.0119      0.0000     -0.0112       90.00
        12         0.0025      0.0006      0.0000      0.0010       90.00
        13         0.0051     -0.0001      0.0109      0.0053       90.00
        14         0.0408     -0.0275     -0.0256     -0.0041       90.00
[...]
    25  C    0.082028   0.036510  -0.006063  -0.000040  -0.097972   0.156588
    26  H   -0.000859   0.001146  -0.000040  -0.000003   0.002617   0.014504
    27  C    0.196180   0.153998   0.036510   0.001146   0.001404  -0.558035
    28  S   -0.390123   0.001402  -0.097972   0.002617   0.093515   0.491699
              13         14         15         16         17         18
     1  H   -0.013719  -0.000317  -0.000474  -0.001819  -0.000012   0.000190
     2  C   -0.072033  -0.008898  -0.074637  -0.152965   0.002306  -0.015852
     3  C    0.051023  -0.021702  -0.171313   0.003273   0.000200   0.005553
     4  H    0.023917   0.001520   0.004888   0.002491   0.000000   0.000116
     5  C   -3.583129   0.066628   0.233448   0.229356  -0.003081   0.050865
     6  H   -0.165524  -0.007633  -0.003355  -0.012559   0.000007   0.003222
     7  C    1.618455  -0.558854  -0.954791  -0.528669  -0.010157   0.573173
     8  C   -2.718789  -0.165314  -0.558038  -2.590127   0.140235   0.196176
     9  C   -3.633312   0.009438   0.156587  -0.147779  -0.004155   0.082028
    10  H   -0.016780   0.001005   0.014504   0.008786   0.001293  -0.000859
    11  S   -1.643600   0.056974   0.491698  -0.360421   0.119108  -0.390121
    12  C    2.432375   0.415179  -0.918008  -0.208406  -0.135006  -0.954783
    13  C   20.464685   0.074399  -0.208390  -3.468805   0.044025  -0.528664
    14  O    0.074399   8.219463  -0.135005   0.044027  -0.000752  -0.010157
    15  C   -0.208390  -0.135005  19.505258   2.432343   0.415178  -2.882115
    16  C   -3.468805   0.044027   2.432343  20.464704   0.074401   1.618469
    17  O    0.044025  -0.000752   0.415178   0.074401   8.219463  -0.558852
    18  C   -0.528664  -0.010157  -2.882115   1.618469  -0.558852  15.405000
    19  C    0.229350  -0.003081  -1.062185  -3.583117   0.066627  -2.944097
    20  H   -0.012559   0.000007  -0.148474  -0.165524  -0.007633   0.040975
    21  C    0.003273   0.000200  -0.636576   0.051026  -0.021702  -1.657184
    22  H    0.002491   0.000000   0.005700   0.023917   0.001520   0.002074
    23  C   -0.152965   0.002306  -0.303972  -0.072033  -0.008898   1.230868
    24  H   -0.001819  -0.000012  -0.011567  -0.013719  -0.000317   0.043505
    25  C   -0.147779  -0.004155  -2.307252  -3.633310   0.009437  -3.664503
    26  H    0.008786   0.001293  -0.003063  -0.016780   0.001005  -0.002458
    27  C   -2.590111   0.140235  -7.159059  -2.718783  -0.165313   1.261577
    28  S   -0.360424   0.119109  -1.231308  -1.643597   0.056974  -1.302254
              19         20         21         22         23         24
     1  H    0.000025  -0.000001   0.000004   0.000000  -0.000002  -0.000000
     2  C    0.000353  -0.000046  -0.000167   0.000003   0.000075  -0.000002
     3  C    0.000522   0.000025  -0.000025  -0.000002  -0.000167   0.000004
     4  H   -0.000011   0.000002  -0.000002  -0.000000   0.000003   0.000000
     5  C    0.008414   0.000233   0.000522  -0.000011   0.000353   0.000025
     6  H    0.000233   0.000004   0.000025   0.000002  -0.000046  -0.000001
     7  C    0.050865   0.003222   0.005553   0.000116  -0.015852   0.000190
     8  C    0.048403   0.000549  -0.018439   0.000138  -0.000437  -0.000008
     9  C    0.003075   0.000430   0.000854   0.000023  -0.000454   0.000004
    10  H   -0.000566   0.000015  -0.000088  -0.000003   0.000074   0.000001
    11  S   -0.034998  -0.003579  -0.066424  -0.001008   0.046933   0.000366
    12  C    0.233443  -0.003356  -0.171313   0.004888  -0.074638  -0.000474
    13  C    0.229350  -0.012559   0.003273   0.002491  -0.152965  -0.001819
    14  O   -0.003081   0.000007   0.000200   0.000000   0.002306  -0.000012
    15  C   -1.062185  -0.148474  -0.636576   0.005700  -0.303972  -0.011567
    16  C   -3.583117  -0.165524   0.051026   0.023917  -0.072033  -0.013719
    17  O    0.066627  -0.007633  -0.021702   0.001520  -0.008898  -0.000317
    18  C   -2.944097   0.040975  -1.657184   0.002074   1.230868   0.043505
    19  C   11.820332   0.474156  -1.671844  -0.126326  -0.614285  -0.018218
    20  H    0.474156   0.468172  -0.136973  -0.011845   0.001572   0.002093
    21  C   -1.671844  -0.136973   9.089796   0.493009  -0.520717  -0.088267
    22  H   -0.126326  -0.011845   0.493009   0.477900  -0.097395  -0.016594
    23  C   -0.614285   0.001572  -0.520717  -0.097395   7.625136   0.459026
    24  H   -0.018218   0.002093  -0.088267  -0.016594   0.459026   0.480256
    25  C    4.207791   0.098052  -0.933027   0.002371   0.129689  -0.067935
    26  H    0.047698   0.000820   0.008203   0.002961  -0.103853  -0.016205
    27  C   -1.104057   0.171369   2.413621   0.010208  -0.984040   0.041519
    28  S    0.419069  -0.009480   0.430753   0.002646  -0.320802  -0.009775
              25         26         27         28
     1  H    0.000004   0.000001  -0.000008   0.000366
     2  C   -0.000454   0.000074  -0.000436   0.046933
     3  C    0.000854  -0.000088  -0.018439  -0.066424
     4  H    0.000023  -0.000003   0.000138  -0.001008
     5  C    0.003075  -0.000566   0.048405  -0.034998
     6  H    0.000430   0.000015   0.000549  -0.003579
     7  C    0.082028  -0.000859   0.196180  -0.390123
     8  C    0.036510   0.001146   0.153998   0.001402
     9  C   -0.006063  -0.000040   0.036510  -0.097972
    10  H   -0.000040  -0.000003   0.001146   0.002617
    11  S   -0.097972   0.002617   0.001404   0.093515
    12  C    0.156588   0.014504  -0.558035   0.491699
    13  C   -0.147779   0.008786  -2.590111  -0.360424
    14  O   -0.004155   0.001293   0.140235   0.119109
    15  C   -2.307252  -0.003063  -7.159059  -1.231308
    16  C   -3.633310  -0.016780  -2.718783  -1.643597
    17  O    0.009437   0.001005  -0.165313   0.056974
    18  C   -3.664503  -0.002458   1.261577  -1.302254
    19  C    4.207791   0.047698  -1.104057   0.419069
    20  H    0.098052   0.000820   0.171369  -0.009480
    21  C   -0.933027   0.008203   2.413621   0.430753
    22  H    0.002371   0.002961   0.010208   0.002646
    23  C    0.129689  -0.103853  -0.984040  -0.320802
    24  H   -0.067935  -0.016205   0.041519  -0.009775
    25  C   12.611809   0.449203  -1.588058   1.181373
    26  H    0.449203   0.479343  -0.064075  -0.034314
    27  C   -1.588058  -0.064075  19.110633  -0.128243
    28  S    1.181373  -0.034314  -0.128243  19.454542
 Mulliken charges:
               1
     1  H    0.217925
     2  C   -0.225478
     3  C   -0.574089
     4  H    0.223218
     5  C   -0.447572
     6  H    0.237772
     7  C    0.398106
     8  C   -0.508833
     9  C   -0.518692
    10  H    0.224640
    11  S   -0.666694
    12  C    1.509976
    13  C    0.365625
    14  O   -0.235904
    15  C    1.509979
    16  C    0.365621
    17  O   -0.235903
    18  C    0.398109
    19  C   -0.447573
    20  H    0.237772
    21  C   -0.574089
    22  H    0.223218
    23  C   -0.225479
    24  H    0.217925
    25  C   -0.518692
    26  H    0.224640
    27  C   -0.508833
    28  S   -0.666696
 Sum of Mulliken charges =  -0.00000
 Mulliken charges with hydrogens summed into heavy atoms:
               1
     2  C   -0.007553
     3  C   -0.350871
     5  C   -0.209800
     7  C    0.398106
     8  C   -0.508833
     9  C   -0.294052
    11  S   -0.666694
    12  C    1.509976
    13  C    0.365625
    14  O   -0.235904
    15  C    1.509979
    16  C    0.365621
    17  O   -0.235903
    18  C    0.398109
    19  C   -0.209801
    21  C   -0.350872
    23  C   -0.007554
    25  C   -0.294052
    27  C   -0.508833
    28  S   -0.666696
 Electronic spatial extent (au):  <R**2>=           7394.1709
 Charge=             -0.0000 electrons
 Dipole moment (field-independent basis, Debye):
    X=              0.0000    Y=              0.0000    Z=              0.0003  Tot=              0.0003
 Quadrupole moment (field-independent basis, Debye-Ang):
   XX=            -82.9140   YY=           -130.8247   ZZ=           -132.4458
   XY=              7.6803   XZ=              0.0019   YZ=             -0.0004
 Traceless Quadrupole moment (field-independent basis, Debye-Ang):
   XX=             32.4809   YY=            -15.4299   ZZ=            -17.0510
   XY=              7.6803   XZ=              0.0019   YZ=             -0.0004
 Octapole moment (field-independent basis, Debye-Ang**2):
  XXX=              0.0001  YYY=              0.0000  ZZZ=             -0.0031  XYY=              0.0000
  XXY=              0.0000  XXZ=              0.0212  XZZ=              0.0000  YZZ=              0.0000
  YYZ=              0.0026  XYZ=             -0.0011
 Hexadecapole moment (field-independent basis, Debye-Ang**3):
 XXXX=          -7040.9882 YYYY=          -1470.9908 ZZZZ=           -153.2793 XXXY=            -21.6363
 XXXZ=              0.0892 YYYX=             57.2668 YYYZ=             -0.0604 ZZZX=              0.0025
 ZZZY=             -0.0580 XXYY=          -1464.7973 XXZZ=          -1638.0807 YYZZ=           -277.8242
 XXYZ=              0.0190 YYXZ=              0.0124 ZZXY=             -4.0475
 N-N= 1.648728628921D+03 E-N=-6.971446313922D+03  KE= 1.556571905388D+03
 No NMR shielding tensors so no spin-rotation constants.
 Leave Link  601 at Tue Apr  6 00:03:51 2021, MaxMem=  1342177280 cpu:               3.0 elap:               0.3
 (Enter /data/apps/g16_2/l602.exe)
 FitSet:  NAtFit=    28 NAtPot=    28 NAtFrz=     0 MDM=    32 TotChg=   0.00000
 Merz-Kollman atomic radii used.

 **********************************************************************

            Electrostatic Properties Using The CI Density.

 **********************************************************************

       Atomic Center    1 is at   6.440064  1.039412  0.000626
       Atomic Center    2 is at   5.461440  0.568628  0.000403
       Atomic Center    3 is at   5.368879 -0.825655  0.000270
       Atomic Center    4 is at   6.272466 -1.426251  0.000384
       Atomic Center    5 is at   4.124627 -1.437039 -0.000011
       Atomic Center    6 is at   4.019357 -2.517646 -0.000130
       Atomic Center    7 is at   2.982873 -0.640682 -0.000172
       Atomic Center    8 is at   3.082578  0.750904 -0.000020
       Atomic Center    9 is at   4.325436  1.371045  0.000263
       Atomic Center   10 is at   4.412543  2.453001  0.000380
       Atomic Center   11 is at   1.524547  1.593851 -0.000193
       Atomic Center   12 is at   0.672908  0.068670 -0.000231
       Atomic Center   13 is at   1.593823 -1.104736 -0.000518
       Atomic Center   14 is at   1.194117 -2.252742 -0.000351
       Atomic Center   15 is at  -0.672907 -0.068670 -0.000090
       Atomic Center   16 is at  -1.593823  1.104736  0.000168
       Atomic Center   17 is at  -1.194117  2.252742  0.000234
       Atomic Center   18 is at  -2.982873  0.640682  0.000145
       Atomic Center   19 is at  -4.124627  1.437039  0.000266
       Atomic Center   20 is at  -4.019358  2.517646  0.000385
       Atomic Center   21 is at  -5.368879  0.825655  0.000236
       Atomic Center   22 is at  -6.272466  1.426251  0.000332
       Atomic Center   23 is at  -5.461440 -0.568628  0.000085
       Atomic Center   24 is at  -6.440064 -1.039413  0.000063
       Atomic Center   25 is at  -4.325436 -1.371045 -0.000038
       Atomic Center   26 is at  -4.412542 -2.453001 -0.000155
       Atomic Center   27 is at  -3.082578 -0.750904 -0.000007
       Atomic Center   28 is at  -1.524547 -1.593851 -0.000147
    1277 points will be used for fitting atomic charges
 Fitting point charges to electrostatic potential
 The dipole moment will be constrained to the correct value
 Charges from ESP fit, RMS=   0.00177 RRMS=   0.11410:
 ESP charges:
               1
     1  H    0.170204
     2  C   -0.231158
     3  C   -0.099336
     4  H    0.152334
     5  C   -0.156202
     6  H    0.139936
     7  C    0.144765
     8  C    0.002309
     9  C   -0.149538
    10  H    0.196530
    11  S    0.016227
    12  C    0.126258
    13  C    0.124032
    14  O   -0.385386
    15  C   -0.170922
    16  C    0.531592
    17  O   -0.489193
    18  C   -0.221751
    19  C   -0.039129
    20  H    0.131896
    21  C   -0.140943
    22  H    0.149276
    23  C   -0.133097
    24  H    0.148142
    25  C   -0.228406
    26  H    0.190653
    27  C    0.146522
    28  S    0.074385
 Sum of ESP charges =  -0.00000
 ESP charges with hydrogens summed into heavy atoms:
               1
     2  C   -0.060954
     3  C    0.052998
     5  C   -0.016266
     7  C    0.144765
     8  C    0.002309
     9  C    0.046991
    11  S    0.016227
    12  C    0.126258
    13  C    0.124032
    14  O   -0.385386
    15  C   -0.170922
    16  C    0.531592
    17  O   -0.489193
    18  C   -0.221751
    19  C    0.092767
    21  C    0.008333
    23  C    0.015045
    25  C   -0.037753
    27  C    0.146522
    28  S    0.074385
 Charge=  -0.00000 Dipole=     0.0000     0.0000     0.0003 Tot=     0.0003
 -----------------------------------------------------------------

              Electrostatic Properties (Atomic Units)

 -----------------------------------------------------------------
    Center     Electric         -------- Electric Field --------
               Potential          X             Y             Z
 -----------------------------------------------------------------
    1 Atom     -1.082689
    2 Atom    -14.742663
    3 Atom    -14.742666
    4 Atom     -1.082297
    5 Atom    -14.743375
    6 Atom     -1.084800
    7 Atom    -14.744289
    8 Atom    -14.710376
    9 Atom    -14.734461
   10 Atom     -1.072079
   11 Atom    -59.171748
   12 Atom    -14.712241
   13 Atom    -14.687432
   14 Atom    -22.377457
   15 Atom    -14.712241
   16 Atom    -14.687431
   17 Atom    -22.377457
   18 Atom    -14.744289
   19 Atom    -14.743375
   20 Atom     -1.084800
   21 Atom    -14.742666
   22 Atom     -1.082297
   23 Atom    -14.742663
   24 Atom     -1.082689
   25 Atom    -14.734461
   26 Atom     -1.072079
   27 Atom    -14.710376
   28 Atom    -59.171748
 -----------------------------------------------------------------
 Leave Link  602 at Tue Apr  6 00:03:52 2021, MaxMem=  1342177280 cpu:               1.9 elap:               0.2
 (Enter /data/apps/g16_2/l9999.exe)
 Electronic transition elements 
                 1             2             3             4             5 
      1  -0.156033D+04 -0.156031D+04 -0.156031D+04 -0.156030D+04 -0.156027D+04
      2  -0.190749D+01  0.249477D-05  0.447566D-03  0.164680D-03  0.000000D+00
      3   0.311899D+00  0.000000D+00 -0.468659D-04  0.522553D-04  0.000000D+00
      4  -0.109132D-03 -0.167959D-04  0.000000D+00  0.136186D-01  0.631288D-04
      5   0.166138D+00  0.000000D+00 -0.472773D-04 -0.190812D-04  0.000000D+00
      6  -0.337191D-01  0.000000D+00  0.580796D-05 -0.750603D-05  0.000000D+00
      7   0.109146D-04  0.148704D-05  0.000000D+00 -0.185114D-02 -0.838548D-05
      8   0.931640D-04 -0.192953D-03 -0.162078D+00  0.000000D+00  0.747434D-04
      9  -0.197180D-03 -0.124589D-02 -0.765853D+00  0.000000D+00  0.469883D-04
     10   0.000000D+00  0.153711D+01 -0.297828D-02 -0.582860D-04  0.910745D+00
     11   0.000000D+00  0.277508D+00 -0.470106D-03  0.749441D-04 -0.559886D+00
     12   0.000000D+00 -0.145762D+00  0.291115D-03  0.000000D+00 -0.271601D-01
     13   0.000000D+00 -0.421078D-02  0.599342D-05 -0.425120D-05  0.901465D-03
     14   0.000000D+00  0.237464D+00 -0.461950D-03  0.000000D+00  0.529163D+00
     15   0.200657D-04  0.264825D-04  0.362083D-01  0.000000D+00 -0.234347D-04
     16  -0.604974D-05  0.178138D-04  0.183119D-02  0.000000D+00  0.429198D-04
                 6             7             8             9            10 
      1  -0.156027D+04 -0.156027D+04 -0.156026D+04 -0.156024D+04 -0.156024D+04
      2  -0.151340D+01  0.821347D-05 -0.108565D+01  0.147188D+01 -0.128252D+01
      3  -0.227279D+00  0.121788D-05 -0.133214D+00  0.518907D+00  0.167532D-01
      4   0.747441D-04  0.618643D-04 -0.350726D-04 -0.313414D-04  0.480117D-04
      5   0.216647D+00 -0.120732D-05  0.162404D+00 -0.244683D+00  0.221087D+00
      6   0.275512D-01  0.000000D+00  0.216564D-01 -0.910247D-01 -0.121895D-02
      7  -0.931986D-05 -0.925822D-05  0.677571D-05  0.471893D-05 -0.856684D-05
      8  -0.218163D-04 -0.101788D-05 -0.631307D-04  0.850721D-04 -0.589183D-05
      9  -0.190664D-03 -0.185884D-03 -0.813517D-04  0.102223D-03 -0.166910D-03
     10  -0.294132D-05 -0.553869D+00  0.000000D+00  0.000000D+00  0.000000D+00
     11  -0.687556D-05 -0.142072D+01 -0.141853D-05  0.000000D+00  0.000000D+00
     12   0.000000D+00  0.174272D+00  0.000000D+00  0.000000D+00  0.000000D+00
     13   0.000000D+00 -0.165663D-01  0.000000D+00  0.000000D+00  0.000000D+00
     14  -0.113951D-05 -0.152807D+00  0.115868D-05  0.000000D+00  0.000000D+00
     15   0.120543D-03  0.574811D-04  0.126520D-04 -0.931984D-04  0.118739D-03
     16  -0.149530D-04 -0.559246D-04  0.145919D-04  0.152609D-04  0.123131D-04
                11            12            13            14            15 
      1  -0.156024D+04 -0.156023D+04 -0.156023D+04 -0.156022D+04 -0.156022D+04
      2   0.000000D+00 -0.674942D-03  0.332280D-05  0.409040D+00 -0.646374D-05
      3   0.000000D+00 -0.322806D-03 -0.589236D-04 -0.358902D+00  0.542077D-05
      4  -0.117102D-03  0.180382D-01  0.000000D+00 -0.565606D-04  0.421820D-04
      5   0.000000D+00  0.120435D-03  0.101412D-05 -0.717607D-01  0.114553D-05
      6   0.000000D+00  0.624841D-04  0.946865D-05  0.610618D-01  0.000000D+00
      7   0.209009D-04 -0.553904D-02  0.000000D+00  0.115398D-04 -0.740627D-05
      8   0.833955D-05  0.000000D+00 -0.137656D+00  0.219559D-03  0.103004D-01
      9   0.149822D-03  0.000000D+00  0.465078D+00  0.203046D-03  0.128777D-01
     10  -0.409472D+00 -0.144877D-03  0.560611D-04 -0.284733D-05 -0.346652D+00
     11   0.224870D+01  0.460210D-03 -0.184584D-03 -0.485913D-05 -0.967159D+00
     12  -0.224201D+00  0.000000D+00 -0.240462D-04  0.000000D+00  0.192506D+00
     13  -0.551770D-01 -0.177245D-04  0.242655D-04  0.000000D+00 -0.230037D-01
     14  -0.118924D+00 -0.845440D-04  0.127475D-04 -0.207293D-05 -0.458534D+00
     15  -0.410475D-04  0.000000D+00  0.174247D+00 -0.161807D-03 -0.157422D-02
     16  -0.195504D-05  0.000000D+00  0.802713D-01 -0.103450D-04  0.130485D-02
 1\1\GINC-NODE1\SP\RPBE1PBE TD-FC\6-311++G(d,p)\C16H8O2S2\MDABRAMO\06-A
 pr-2021\0\\#P pbe1pbe/6-311++G** TD=(NStates=15,Root=1) Pop=(MK,dipole
 ) Density=Current\\thioindigo\\0,1\H,0,-6.440064,-1.039412,0.000626\C,
 0,-5.46144,-0.568628,0.000403\C,0,-5.368879,0.825655,0.00027\H,0,-6.27
 2466,1.426251,0.000384\C,0,-4.124627,1.437039,-0.000011\H,0,-4.019357,
 2.517646,-0.00013\C,0,-2.982873,0.640682,-0.000172\C,0,-3.082578,-0.75
 0904,-0.00002\C,0,-4.325436,-1.371045,0.000263\H,0,-4.412543,-2.453001
 ,0.00038\S,0,-1.524547,-1.593851,-0.000193\C,0,-0.672908,-0.06867,-0.0
 00231\C,0,-1.593823,1.104736,-0.000518\O,0,-1.194117,2.252742,-0.00035
 1\C,0,0.672907,0.06867,-0.00009\C,0,1.593823,-1.104736,0.000168\O,0,1.
 194117,-2.252742,0.000234\C,0,2.982873,-0.640682,0.000145\C,0,4.124627
 ,-1.437039,0.000266\H,0,4.019358,-2.517646,0.000385\C,0,5.368879,-0.82
 5655,0.000236\H,0,6.272466,-1.426251,0.000332\C,0,5.46144,0.568628,0.0
 00085\H,0,6.440064,1.039413,0.000063\C,0,4.325436,1.371045,-0.000038\H
 ,0,4.412542,2.453001,-0.000155\C,0,3.082578,0.750904,-0.000007\S,0,1.5
 24547,1.593851,-0.000147\\Version=ES64L-G16RevB.01\State=1-A\HF=-1560.
 415348\RMSD=4.075e-09\Dipole=-0.0000021,-0.0000012,0.0001089\Quadrupol
 e=24.1487175,-11.4717447,-12.6769728,5.7101437,-0.0013824,0.00028\PG=C
 01 [X(C16H8O2S2)]\\@


 IT IS BY LOGIC THAT WE PROVE, BUT BY INTUITION THAT WE DISCOVER.
     -- J.H.POINCARE (1854-1912)
 Job cpu time:       0 days  6 hours 53 minutes 15.5 seconds.
 Elapsed time:       0 days  0 hours 34 minutes 29.5 seconds.
 File lengths (MBytes):  RWF=   1744 Int=      0 D2E=      0 Chk=    136 Scr=      1
 Normal termination of Gaussian 16 at Tue Apr  6 00:03:54 2021.
